
6000 atoms
1 atom types
   0.0000000000  127.8095507000 xlo xhi
   0.0000000000  125.2272733900 ylo yhi
   0.0000000000    4.4274527100 zlo zhi
   0.0000000000    0.0000000000    0.0000000000 xy xz yz

Atoms # atomic

     1      1   -0.8510083900   -0.1822520200    0.0000000000
     2      1   -0.8740383900    3.9755702100    2.9516351500
     3      1   -0.8622339000    1.8968262800    1.4758175600
     4      1    0.4336961500   -0.1756575500    2.2137263500
     5      1    0.4225971700    1.9034758400    3.6895439100
     6      1    0.4108898100    3.9822398200    0.7379088000
     7      1    1.7184454200   -0.1689741700    0.0000000000
     8      1    1.6959087600    3.9890421600    2.9516351500
     9      1    1.7074959800    1.9102356100    1.4758175600
    10      1    3.0032279200   -0.1622119000    2.2137263500
    11      1    2.9924497400    1.9170968100    3.6895439100
    12      1    2.9810082300    3.9959697300    0.7379088000
    13      1    4.2880308800   -0.1553832500    0.0000000000
    14      1    4.2661754400    4.0030125200    2.9516351500
    15      1    4.2774482400    1.9240481800    1.4758175600
    16      1    5.5728415000   -0.1484982600    2.2137263500
    17      1    5.5624761400    1.9310796900    3.6895439100
    18      1    5.5513976100    4.0101604900    0.7379088000
    19      1    6.8576457300   -0.1415719400    0.0000000000
    20      1    6.8366619500    4.0174011300    2.9516351500
    21      1    6.8475206500    1.9381775700    1.4758175600
    22      1    8.1424295100   -0.1346193200    2.2137263500
    23      1    8.1325651700    1.9453268000    3.6895439100
    24      1    8.1219518600    4.0247206600    0.7379088000
    25      1    9.4271762200   -0.1276529300    0.0000000000
    26      1    9.4072507100    4.0321053200    2.9516351500
    27      1    9.4175956200    1.9525135900    1.4758175600
    28      1   10.7118730900   -0.1206902900    2.2137263500
    29      1   10.7025928400    1.9597204200    3.6895439100
    30      1   10.6925419000    4.0395363000    0.7379088000
    31      1   11.9965035000   -0.1137476900    0.0000000000
    32      1   11.9778075200    4.0469986000    2.9516351500
    33      1   11.9875440500    1.9669297600    1.4758175600
    34      1   13.2810533900   -0.1068401500    2.2137263500
    35      1   13.2724288000    1.9741253100    3.6895439100
    36      1   13.2630284100    4.0544709100    0.7379088000
    37      1   14.5655087000   -0.0999852100    0.0000000000
    38      1   14.5481866700    4.0619369600    2.9516351500
    39      1   14.5572330300    1.9812895700    1.4758175600
    40      1   15.8498553700   -0.0931991500    2.2137263500
    41      1   15.8419401300    1.9884012200    3.6895439100
    42      1   15.8332644200    4.0693729500    0.7379088000
    43      1   17.1340793500   -0.0864994900    0.0000000000
    44      1   17.1182437500    4.0767613600    2.9516351500
    45      1   17.1265347500    1.9954440100    1.4758175600
    46      1   18.4181704000   -0.0799000100    2.2137263500
    47      1   18.4110015700    2.0023991300    3.6895439100
    48      1   18.4031054900    4.0840796400    0.7379088000
    49      1   19.7021157500   -0.0734169900    0.0000000000
    50      1   19.6878343100    4.0913102700    2.9516351500
    51      1   19.6953277900    2.0092503100    1.4758175600
    52      1   20.9859077300   -0.0670642100    2.2137263500
    53      1   20.9795006400    2.0159787700    3.6895439100
    54      1   20.9724148800    4.0984306900    0.7379088000
    55      1   22.2695373900   -0.0608541900    0.0000000000
    56      1   22.2568318400    4.1054233800    2.9516351500
    57      1   22.2635098900    2.0225694900    1.4758175600
    58      1   23.5529970700   -0.0548007100    2.2137263500
    59      1   23.5473453300    2.0290074200    3.6895439100
    60      1   23.5410749900    4.1122695600    0.7379088000
    61      1   24.8362816400   -0.0489150300    0.0000000000
    62      1   24.8251328100    4.1189529400    2.9516351500
    63      1   24.8310005500    2.0352788000    1.4758175600
    64      1   26.1193872800   -0.0432046600    2.2137263500
    65      1   26.1144666100    2.0413711100    3.6895439100
    66      1   26.1089963700    4.1254597400    0.7379088000
    67      1   27.4023114300   -0.0376808900    0.0000000000
    68      1   27.3926579800    4.1317737000    2.9516351500
    69      1   27.3977422400    2.0472743200    1.4758175600
    70      1   28.6850515400   -0.0323499600    2.2137263500
    71      1   28.6808210400    2.0529784200    3.6895439100
    72      1   28.6761138200    4.1378847900    0.7379088000
    73      1   29.9676101600   -0.0272169000    0.0000000000
    74      1   29.9593600500    4.1437804900    2.9516351500
    75      1   29.9637055700    2.0584759000    1.4758175600
    76      1   31.2499860100   -0.0222892000    2.2137263500
    77      1   31.2463932800    2.0637592400    3.6895439100
    78      1   31.2423966700    4.1494532900    0.7379088000
    79      1   32.5321816400   -0.0175693900    0.0000000000
    80      1   32.5252211300    4.1548956700    2.9516351500
    81      1   32.5288867100    2.0688221800    1.4758175600
    82      1   33.8142021800   -0.0130599500    2.2137263500
    83      1   33.8111871500    2.0736622100    3.6895439100
    84      1   33.8078385400    4.1601013700    0.7379088000
    85      1   35.0960501800   -0.0087634000    0.0000000000
    86      1   35.0902501800    4.1650666300    2.9516351500
    87      1   35.0933009900    2.0782755900    1.4758175600
    88      1   36.3777307400   -0.0046822500    2.2137263500
    89      1   36.3752320600    2.0826597900    3.6895439100
    90      1   36.3724611500    4.1697876900    0.7379088000
    91      1   37.6592502700   -0.0008139800    0.0000000000
    92      1   37.6544765800    4.1742620700    2.9516351500
    93      1   37.6569854800    2.0868148300    1.4758175600
    94      1   38.9406151400    0.0028389000    2.2137263500
    95      1   38.9385689100    2.0907407100    3.6895439100
    96      1   38.9363041300    4.1784909900    0.7379088000
    97      1   40.2218330400    0.0062789000    0.0000000000
    98      1   40.2179514600    4.1824719700    2.9516351500
    99      1   40.2199874700    2.0944361700    1.4758175600
   100      1   41.5029090600    0.0095060000    2.2137263500
   101      1   41.5012526500    2.0979037100    3.6895439100
   102      1   41.4994275300    4.1862074900    0.7379088000
   103      1   42.7838521700    0.0125227300    0.0000000000
   104      1   42.7807387200    4.1896988300    2.9516351500
   105      1   42.7823695700    2.1011458400    1.4758175600
   106      1   44.0646700200    0.0153303200    2.2137263500
   107      1   44.0633484600    2.1041613200    3.6895439100
   108      1   44.0618965500    4.1929472300    0.7379088000
   109      1   45.3453715600    0.0179325500    0.0000000000
   110      1   45.3429112300    4.1959564400    2.9516351500
   111      1   45.3441969900    2.1069551400    1.4758175600
   112      1   46.6259631900    0.0203294000    2.2137263500
   113      1   46.6249241000    2.1095285600    3.6895439100
   114      1   46.6237904200    4.1987264700    0.7379088000
   115      1   47.9064538400    0.0225233800    0.0000000000
   116      1   47.9045456500    4.2012623200    2.9516351500
   117      1   47.9055412800    2.1118853300    1.4758175600
   118      1   49.1868537600    0.0245182500    2.2137263500
   119      1   49.1860549500    2.1140254700    3.6895439100
   120      1   49.1851871200    4.2035652500    0.7379088000
   121      1   50.4671693200    0.0263152600    0.0000000000
   122      1   50.4657250700    4.2056390100    2.9516351500
   123      1   50.4664765900    2.1159539700    1.4758175600
   124      1   51.7474094700    0.0279169200    2.2137263500
   125      1   51.7468138800    2.1176720900    3.6895439100
   126      1   51.7461697200    4.2074873700    0.7379088000
   127      1   53.0275831600    0.0293257200    0.0000000000
   128      1   53.0265325600    4.2091103100    2.9516351500
   129      1   53.0270783100    2.1191810700    1.4758175600
   130      1   54.3076980600    0.0305416800    2.2137263500
   131      1   54.3072775600    2.1204859400    3.6895439100
   132      1   54.3068238400    4.2105116000    0.7379088000
   133      1   55.5877631100    0.0315672900    0.0000000000
   134      1   55.5870524900    4.2116950000    2.9516351500
   135      1   55.5874205800    2.1215854400    1.4758175600
   136      1   56.8677872600    0.0324050600    2.2137263500
   137      1   56.8675188600    2.1224833200    3.6895439100
   138      1   56.8672300100    4.2126592500    0.7379088000
   139      1   58.1477769100    0.0330562400    0.0000000000
   140      1   58.1473666400    4.2134081100    2.9516351500
   141      1   58.1475788000    2.1231808300    1.4758175600
   142      1   59.4277422700    0.0335195800    2.2137263500
   143      1   59.4276119000    2.1236767300    3.6895439100
   144      1   59.4274713100    4.2139415800    0.7379088000
   145      1   60.7076910100    0.0337975900    0.0000000000
   146      1   60.7075568100    4.2142609100    2.9516351500
   147      1   60.7076271100    2.1239747700    1.4758175600
   148      1   61.9876320900    0.0338902600    2.2137263500
   149      1   61.9876320900    2.1240737000    3.6895439100
   150      1   61.9876320900    4.2143673500    0.7379088000
   151      1   63.2675731700    0.0337975900    0.0000000000
   152      1   63.2677073700    4.2142609100    2.9516351500
   153      1   63.2676370700    2.1239747700    1.4758175600
   154      1   64.5475219100    0.0335195800    2.2137263500
   155      1   64.5476522800    2.1236767300    3.6895439100
   156      1   64.5477928700    4.2139415800    0.7379088000
   157      1   65.8274872700    0.0330562400    0.0000000000
   158      1   65.8278975400    4.2134081100    2.9516351500
   159      1   65.8276853800    2.1231808300    1.4758175600
   160      1   67.1074769200    0.0324050600    2.2137263500
   161      1   67.1077453200    2.1224833200    3.6895439100
   162      1   67.1080341700    4.2126592500    0.7379088000
   163      1   68.3875010700    0.0315672900    0.0000000000
   164      1   68.3882116900    4.2116950000    2.9516351500
   165      1   68.3878436000    2.1215854400    1.4758175600
   166      1   69.6675661200    0.0305416800    2.2137263500
   167      1   69.6679866200    2.1204859400    3.6895439100
   168      1   69.6684403400    4.2105116000    0.7379088000
   169      1   70.9476810200    0.0293257200    0.0000000000
   170      1   70.9487316100    4.2091103100    2.9516351500
   171      1   70.9481858700    2.1191810700    1.4758175600
   172      1   72.2278547100    0.0279169200    2.2137263500
   173      1   72.2284503000    2.1176720900    3.6895439100
   174      1   72.2290944600    4.2074873700    0.7379088000
   175      1   73.5080948600    0.0263152600    0.0000000000
   176      1   73.5095391100    4.2056390100    2.9516351500
   177      1   73.5087875900    2.1159539700    1.4758175600
   178      1   74.7884104200    0.0245182500    2.2137263500
   179      1   74.7892092300    2.1140254700    3.6895439100
   180      1   74.7900770600    4.2035652500    0.7379088000
   181      1   76.0688103300    0.0225233800    0.0000000000
   182      1   76.0707185300    4.2012623200    2.9516351500
   183      1   76.0697228900    2.1118853300    1.4758175600
   184      1   77.3493009900    0.0203294000    2.2137263500
   185      1   77.3503400800    2.1095285600    3.6895439100
   186      1   77.3514737500    4.1987264700    0.7379088000
   187      1   78.6298926200    0.0179325500    0.0000000000
   188      1   78.6323529500    4.1959564400    2.9516351500
   189      1   78.6310671900    2.1069551400    1.4758175600
   190      1   79.9105941600    0.0153303200    2.2137263500
   191      1   79.9119157100    2.1041613200    3.6895439100
   192      1   79.9133676300    4.1929472300    0.7379088000
   193      1   81.1914120100    0.0125227300    0.0000000000
   194      1   81.1945254500    4.1896988300    2.9516351500
   195      1   81.1928946000    2.1011458400    1.4758175600
   196      1   82.4723551200    0.0095060000    2.2137263500
   197      1   82.4740115300    2.0979037100    3.6895439100
   198      1   82.4758366500    4.1862074900    0.7379088000
   199      1   83.7534311400    0.0062789000    0.0000000000
   200      1   83.7573127200    4.1824719700    2.9516351500
   201      1   83.7552767100    2.0944361700    1.4758175600
   202      1   85.0346490400    0.0028389000    2.2137263500
   203      1   85.0366952700    2.0907407100    3.6895439100
   204      1   85.0389600500    4.1784909900    0.7379088000
   205      1   86.3160139100   -0.0008139800    0.0000000000
   206      1   86.3207876000    4.1742620700    2.9516351500
   207      1   86.3182787000    2.0868148300    1.4758175600
   208      1   87.5975334400   -0.0046822500    2.2137263500
   209      1   87.6000321100    2.0826597900    3.6895439100
   210      1   87.6028030300    4.1697876900    0.7379088000
   211      1   88.8792140000   -0.0087634000    0.0000000000
   212      1   88.8850140000    4.1650666300    2.9516351500
   213      1   88.8819631900    2.0782755900    1.4758175600
   214      1   90.1610620000   -0.0130599500    2.2137263500
   215      1   90.1640770300    2.0736622100    3.6895439100
   216      1   90.1674256400    4.1601013700    0.7379088000
   217      1   91.4430825400   -0.0175693900    0.0000000000
   218      1   91.4500430400    4.1548956700    2.9516351500
   219      1   91.4463774700    2.0688221800    1.4758175600
   220      1   92.7252781700   -0.0222892000    2.2137263500
   221      1   92.7288709000    2.0637592400    3.6895439100
   222      1   92.7328675000    4.1494532900    0.7379088000
   223      1   94.0076540200   -0.0272169000    0.0000000000
   224      1   94.0159041300    4.1437804900    2.9516351500
   225      1   94.0115586000    2.0584759000    1.4758175600
   226      1   95.2902126400   -0.0323499600    2.2137263500
   227      1   95.2944431400    2.0529784200    3.6895439100
   228      1   95.2991503600    4.1378847900    0.7379088000
   229      1   96.5729527500   -0.0376808900    0.0000000000
   230      1   96.5826062000    4.1317737000    2.9516351500
   231      1   96.5775219400    2.0472743200    1.4758175600
   232      1   97.8558769000   -0.0432046600    2.2137263500
   233      1   97.8607975600    2.0413711100    3.6895439100
   234      1   97.8662678100    4.1254597400    0.7379088000
   235      1   99.1389825400   -0.0489150300    0.0000000000
   236      1   99.1501313700    4.1189529400    2.9516351500
   237      1   99.1442636300    2.0352788000    1.4758175600
   238      1  100.4222671100   -0.0548007100    2.2137263500
   239      1  100.4279188500    2.0290074200    3.6895439100
   240      1  100.4341891900    4.1122695600    0.7379088000
   241      1  101.7057267900   -0.0608541900    0.0000000000
   242      1  101.7184323300    4.1054233800    2.9516351500
   243      1  101.7117542900    2.0225694900    1.4758175600
   244      1  102.9893564500   -0.0670642100    2.2137263500
   245      1  102.9957635400    2.0159787700    3.6895439100
   246      1  103.0028493000    4.0984306900    0.7379088000
   247      1  104.2731484300   -0.0734169900    0.0000000000
   248      1  104.2874298700    4.0913102700    2.9516351500
   249      1  104.2799363900    2.0092503100    1.4758175600
   250      1  105.5570937800   -0.0799000100    2.2137263500
   251      1  105.5642626100    2.0023991300    3.6895439100
   252      1  105.5721586900    4.0840796400    0.7379088000
   253      1  106.8411848300   -0.0864994900    0.0000000000
   254      1  106.8570204300    4.0767613600    2.9516351500
   255      1  106.8487294300    1.9954440100    1.4758175600
   256      1  108.1254088000   -0.0931991500    2.2137263500
   257      1  108.1333240500    1.9884012200    3.6895439100
   258      1  108.1419997600    4.0693729500    0.7379088000
   259      1  109.4097554800   -0.0999852100    0.0000000000
   260      1  109.4270775000    4.0619369600    2.9516351500
   261      1  109.4180311400    1.9812895700    1.4758175600
   262      1  110.6942107900   -0.1068401500    2.2137263500
   263      1  110.7028353800    1.9741253100    3.6895439100
   264      1  110.7122357700    4.0544709100    0.7379088000
   265      1  111.9787606800   -0.1137476900    0.0000000000
   266      1  111.9974566600    4.0469986000    2.9516351500
   267      1  111.9877201300    1.9669297600    1.4758175600
   268      1  113.2633910900   -0.1206902900    2.2137263500
   269      1  113.2726713400    1.9597204200    3.6895439100
   270      1  113.2827222800    4.0395363000    0.7379088000
   271      1  114.5480879600   -0.1276529300    0.0000000000
   272      1  114.5680134600    4.0321053200    2.9516351500
   273      1  114.5576685600    1.9525135900    1.4758175600
   274      1  115.8328346700   -0.1346193200    2.2137263500
   275      1  115.8426990100    1.9453268000    3.6895439100
   276      1  115.8533123200    4.0247206600    0.7379088000
   277      1  117.1176184500   -0.1415719400    0.0000000000
   278      1  117.1386022200    4.0174011300    2.9516351500
   279      1  117.1277435200    1.9381775700    1.4758175600
   280      1  118.4024226800   -0.1484982600    2.2137263500
   281      1  118.4127880400    1.9310796900    3.6895439100
   282      1  118.4238665700    4.0101604900    0.7379088000
   283      1  119.6872333000   -0.1553832500    0.0000000000
   284      1  119.7090887400    4.0030125200    2.9516351500
   285      1  119.6978159300    1.9240481800    1.4758175600
   286      1  120.9720362600   -0.1622119000    2.2137263500
   287      1  120.9828144400    1.9170968100    3.6895439100
   288      1  120.9942559500    3.9959697300    0.7379088000
   289      1  122.2568187600   -0.1689741700    0.0000000000
   290      1  122.2793554200    3.9890421600    2.9516351500
   291      1  122.2677682000    1.9102356100    1.4758175600
   292      1  123.5415680300   -0.1756575500    2.2137263500
   293      1  123.5526670100    1.9034758400    3.6895439100
   294      1  123.5643743700    3.9822398200    0.7379088000
   295      1  124.8262725700   -0.1822520200    0.0000000000
   296      1  124.8493025700    3.9755702100    2.9516351500
   297      1  124.8374980800    1.8968262800    1.4758175600
   298      1  126.1109208700   -0.1887488100    2.2137263500
   299      1  126.1222524700    1.8902956700    3.6895439100
   300      1  126.1341323600    3.9690383600    0.7379088000
   301      1   -0.8864052500    6.0540161100    0.0000000000
   302      1   -0.9127148400   10.2102091300    2.9516351500
   303      1   -0.8993089000    8.1322103000    1.4758175600
   304      1    0.3985855900    6.0606706800    2.2137263500
   305      1    0.3857062200    8.1388122800    3.6895439100
   306      1    0.3722836600   10.2167184400    0.7379088000
   307      1    1.6836914500    6.0674792900    0.0000000000
   308      1    1.6574419200   10.2234181000    2.9516351500
   309      1    1.6708593700    8.1455870700    1.4758175600
   310      1    2.9689008300    6.0744356700    2.2137263500
   311      1    2.9561428800    8.1525309200    3.6895439100
   312      1    2.9427548300   10.2303068500    0.7379088000
   313      1    4.2542060800    6.0815323000    0.0000000000
   314      1    4.2282147300   10.2373834500    2.9516351500
   315      1    4.2415465400    8.1596413300    1.4758175600
   316      1    5.5395931200    6.0887604100    2.2137263500
   317      1    5.5270626700    8.1669082700    3.6895439100
   318      1    5.5138152100   10.2446441200    0.7379088000
   319      1    6.8250491800    6.0961087500    0.0000000000
   320      1    6.7995447800   10.2520801200    2.9516351500
   321      1    6.8126759400    8.1743242300    1.4758175600
   322      1    8.1105602000    6.1035660300    2.2137263500
   323      1    8.0983748300    8.1818791900    3.6895439100
   324      1    8.0853919400   10.2596864200    0.7379088000
   325      1    9.3961082800    6.1111184900    0.0000000000
   326      1    9.3713413400   10.2674505200    2.9516351500
   327      1    9.3841427500    8.1895593800    1.4758175600
   328      1   10.6816755300    6.1187473400    2.2137263500
   329      1   10.6699617900    8.1973510200    3.6895439100
   330      1   10.6573776600   10.2753611200    0.7379088000
   331      1   11.9672453400    6.1264375400    0.0000000000
   332      1   11.9434817100   10.2834019700    2.9516351500
   333      1   11.9558140500    8.2052378300    1.4758175600
   334      1   13.2527959800    6.1341690800    2.2137263500
   335      1   13.2416778300    8.2131985300    3.6895439100
   336      1   13.2296330500   10.2915555100    0.7379088000
   337      1   14.5383070000    6.1419219000    0.0000000000
   338      1   14.5158099600   10.2998029800    2.9516351500
   339      1   14.5275326500    8.2212155800    1.4758175600
   340      1   15.8237592200    6.1496734600    2.2137263500
   341      1   15.8133542500    8.2292651900    3.6895439100
   342      1   15.8019881400   10.3081218300    0.7379088000
   343      1   17.1091309300    6.1574037400    0.0000000000
   344      1   17.0881446000   10.3164882600    2.9516351500
   345      1   17.0991221600    8.2373248200    1.4758175600
   346      1   18.3944016600    6.1650876900    2.2137263500
   347      1   18.3848108300    8.2453681600    3.6895439100
   348      1   18.3742512100   10.3248747300    0.7379088000
   349      1   19.6795522500    6.1727040100    0.0000000000
   350      1   19.6602824100   10.3332549400    2.9516351500
   351      1   19.6703985300    8.2533714400    1.4758175600
   352      1   20.9645648100    6.1802289200    2.2137263500
   353      1   20.9558622600    8.2613083400    3.6895439100
   354      1   20.9462126400   10.3416013400    0.7379088000
   355      1   22.2494201700    6.1876411200    0.0000000000
   356      1   22.2320163400   10.3498851300    2.9516351500
   357      1   22.2411815700    8.2691525800    1.4758175600
   358      1   23.5341029800    6.1949180800    2.2137263500
   359      1   23.5263347200    8.2768803600    3.6895439100
   360      1   23.5176692300   10.3580749900    0.7379088000
   361      1   24.8185979100    6.2020410100    0.0000000000
   362      1   24.8031470100   10.3661446300    2.9516351500
   363      1   24.8113051000    8.2844653700    1.4758175600
   364      1   26.1028960200    6.2089911200    2.2137263500
   365      1   26.0960748200    8.2918875900    3.6895439100
   366      1   26.0884292500   10.3740665100    0.7379088000
   367      1   27.3869845100    6.2157496400    0.0000000000
   368      1   27.3734993300   10.3818130700    2.9516351500
   369      1   27.3806323800    8.2991244800    1.4758175600
   370      1   28.6708570100    6.2223027800    2.2137263500
   371      1   28.6649649900    8.3061572400    3.6895439100
   372      1   28.6583380700   10.3893617700    0.7379088000
   373      1   29.9545071200    6.2286355200    0.0000000000
   374      1   29.9429352400   10.3966900700    2.9516351500
   375      1   29.9490637100    8.3129671000    1.4758175600
   376      1   31.2379310100    6.2347365900    2.2137263500
   377      1   31.2329221500    8.3195390300    3.6895439100
   378      1   31.2272793600   10.4037779300    0.7379088000
   379      1   32.5211286700    6.2405972300    0.0000000000
   380      1   32.5113627400   10.4106078300    2.9516351500
   381      1   32.5165364800    8.3258605000    1.4758175600
   382      1   33.8041001100    6.2462086600    2.2137263500
   383      1   33.7999066800    8.3319202500    3.6895439100
   384      1   33.7951815600   10.4171647300    0.7379088000
   385      1   35.0868466100    6.2515633800    0.0000000000
   386      1   35.0787358200   10.4234386200    2.9516351500
   387      1   35.0830315000    8.3377095000    1.4758175600
   388      1   36.3693732700    6.2566588800    2.2137263500
   389      1   36.3659160300    8.3432220100    3.6895439100
   390      1   36.3620255000   10.4294169700    0.7379088000
   391      1   37.6516852200    6.2614901500    0.0000000000
   392      1   37.6450531800   10.4350960200    2.9516351500
   393      1   37.6485641100    8.3484527500    1.4758175600
   394      1   38.9337888300    6.2660571900    2.2137263500
   395      1   38.9309808600    8.3533992300    3.6895439100
   396      1   38.9278278000   10.4404670200    0.7379088000
   397      1   40.2156930600    6.2703574900    0.0000000000
   398      1   40.2103544600   10.4455299600    2.9516351500
   399      1   40.2131764900    8.3580576800    1.4758175600
   400      1   41.4974068600    6.2743935700    2.2137263500
   401      1   41.4951586900    8.3624293700    3.6895439100
   402      1   41.4926434000   10.4502810800    0.7379088000
   403      1   42.7789378900    6.2781641600    0.0000000000
   404      1   42.7747061100   10.4547228900    2.9516351500
   405      1   42.7769389500    8.3665155300    1.4758175600
   406      1   44.0602976500    6.2816730300    2.2137263500
   407      1   44.0585262100    8.3703161800    3.6895439100
   408      1   44.0565528300   10.4588541400    0.7379088000
   409      1   45.3414963700    6.2849214200    0.0000000000
   410      1   45.3381976100   10.4626773300    2.9516351500
   411      1   45.3399332600    8.3738350700    1.4758175600
   412      1   46.6225455600    6.2879118500    2.2137263500
   413      1   46.6211728900    8.3770747000    3.6895439100
   414      1   46.6196532300   10.4661974700    0.7379088000
   415      1   47.9034554300    6.2906493200    0.0000000000
   416      1   47.9009337500   10.4694158100    2.9516351500
   417      1   47.9022578600    8.3800375700    1.4758175600
   418      1   49.1842387700    6.2931350800    2.2137263500
   419      1   49.1831996800    8.3827274600    3.6895439100
   420      1   49.1820545100   10.4723361100    0.7379088000
   421      1   50.4649058100    6.2953716400    0.0000000000
   422      1   50.4630270100   10.4749646300    2.9516351500
   423      1   50.4640111400    8.3851481000    1.4758175600
   424      1   51.7454706000    6.2973640100    2.2137263500
   425      1   51.7447063000    8.3873032600    3.6895439100
   426      1   51.7438691400   10.4773026200    0.7379088000
   427      1   53.0259408100    6.2991146800    0.0000000000
   428      1   53.0245949700   10.4793563500    2.9516351500
   429      1   53.0252979200    8.3891954400    1.4758175600
   430      1   54.3063317700    6.3006249200    2.2137263500
   431      1   54.3057988100    8.3908284100    3.6895439100
   432      1   54.3052172700   10.4811270600    0.7379088000
   433      1   55.5866537200    6.3018997400    0.0000000000
   434      1   55.5857526600   10.4826197700    2.9516351500
   435      1   55.5862217300    8.3922059100    1.4758175600
   436      1   56.8669181600    6.3029378700    2.2137263500
   437      1   56.8665820200    8.3933292000    3.6895439100
   438      1   56.8662152000   10.4838369800    0.7379088000
   439      1   58.1471365800    6.3037443400    0.0000000000
   440      1   58.1466202300   10.4847812000    2.9516351500
   441      1   58.1468886300    8.3941995300    1.4758175600
   442      1   59.4273205000    6.3043191300    2.2137263500
   443      1   59.4271581800    8.3948206500    3.6895439100
   444      1   59.4269818000   10.4854536700    0.7379088000
   445      1   60.7074826800    6.3046647600    0.0000000000
   446      1   60.7073139700   10.4858569000    2.9516351500
   447      1   60.7074021600    8.3951925800    1.4758175600
   448      1   61.9876320900    6.3047787100    2.2137263500
   449      1   61.9876320900    8.3953165500    3.6895439100
   450      1   61.9876320900   10.4859908900    0.7379088000
   451      1   63.2677815000    6.3046647600    0.0000000000
   452      1   63.2679502000   10.4858569000    2.9516351500
   453      1   63.2678632900    8.3951925800    1.4758175600
   454      1   64.5479436800    6.3043191300    2.2137263500
   455      1   64.5481060000    8.3948206500    3.6895439100
   456      1   64.5482823800   10.4854536700    0.7379088000
   457      1   65.8281276000    6.3037443400    0.0000000000
   458      1   65.8286439500   10.4847812000    2.9516351500
   459      1   65.8283755500    8.3941995300    1.4758175600
   460      1   67.1083460200    6.3029378700    2.2137263500
   461      1   67.1086821600    8.3933292000    3.6895439100
   462      1   67.1090489700   10.4838369800    0.7379088000
   463      1   68.3886104600    6.3018997400    0.0000000000
   464      1   68.3895115100   10.4826197700    2.9516351500
   465      1   68.3890424500    8.3922059100    1.4758175600
   466      1   69.6689324100    6.3006249200    2.2137263500
   467      1   69.6694653700    8.3908284100    3.6895439100
   468      1   69.6700469100   10.4811270600    0.7379088000
   469      1   70.9493233700    6.2991146800    0.0000000000
   470      1   70.9506692100   10.4793563500    2.9516351500
   471      1   70.9499662600    8.3891954400    1.4758175600
   472      1   72.2297935800    6.2973640100    2.2137263500
   473      1   72.2305578800    8.3873032600    3.6895439100
   474      1   72.2313950400   10.4773026200    0.7379088000
   475      1   73.5103583700    6.2953716400    0.0000000000
   476      1   73.5122371700   10.4749646300    2.9516351500
   477      1   73.5112530400    8.3851481000    1.4758175600
   478      1   74.7910254000    6.2931350800    2.2137263500
   479      1   74.7920645000    8.3827274600    3.6895439100
   480      1   74.7932096700   10.4723361100    0.7379088000