
4 atoms
1 atom types
   0.0000000000    4.0038866455 xlo xhi
   0.0000000000    4.0038866455 ylo yhi
   0.0000000000    4.0038866455 zlo zhi
   0.0000000000    0.0000000000    0.0000000000 xy xz yz

Atoms # atomic

     1      1    0.0000000000    0.0000000000    0.0000000000
     2      1    0.0000000000    2.0019433227    2.0019433227
     3      1    2.0019433227    0.0000000000    2.0019433227
     4      1    2.0019433227    2.0019433227    0.0000000000
