ITEM: TIMESTEP
0
ITEM: NUMBER OF ATOMS
4
ITEM: BOX BOUNDS xy xz yz pp pp pp
0.0000000000000000e+00 4.0038866454999997e+00 0.0000000000000000e+00
0.0000000000000000e+00 4.0038866454999997e+00 0.0000000000000000e+00
0.0000000000000000e+00 4.0038866454999997e+00 0.0000000000000000e+00
ITEM: ATOMS id type xs ys zs fx fy fz
1 1 0 0 0 -4.21533e-11 -4.21534e-11 -4.21533e-11
2 1 0 0.5 0.5 -4.21535e-11 4.21534e-11 4.21533e-11
3 1 0.5 0 0.5 4.21533e-11 -4.21534e-11 4.21534e-11
4 1 0.5 0.5 0 4.21533e-11 4.21534e-11 -4.21537e-11
ITEM: TIMESTEP
100
ITEM: NUMBER OF ATOMS
4
ITEM: BOX BOUNDS xy xz yz pp pp pp
2.0019433227499998e-02 3.9838672122724859e+00 0.0000000000000000e+00
2.0019433227499998e-02 3.9838672122724859e+00 0.0000000000000000e+00
2.0019433227499998e-02 3.9838672122724859e+00 0.0000000000000000e+00
ITEM: ATOMS id type xs ys zs fx fy fz
1 1 -5.3024e-15 -5.3024e-15 -5.3024e-15 -6.28484e-11 -6.28483e-11 -6.2848e-11
2 1 -5.3024e-15 0.5 0.5 -6.28484e-11 6.28483e-11 6.28482e-11
3 1 0.5 -5.3024e-15 0.5 6.28483e-11 -6.28485e-11 6.28483e-11
4 1 0.5 0.5 -5.3024e-15 6.28484e-11 6.28482e-11 -6.28482e-11
ITEM: TIMESTEP
200
ITEM: NUMBER OF ATOMS
4
ITEM: BOX BOUNDS xy xz yz pp pp pp
4.0038866454999995e-02 3.9638477790449720e+00 0.0000000000000000e+00
4.0038866454999995e-02 3.9638477790449720e+00 0.0000000000000000e+00
4.0038866454999995e-02 3.9638477790449720e+00 0.0000000000000000e+00
ITEM: ATOMS id type xs ys zs fx fy fz
1 1 -1.31234e-14 -1.31234e-14 -1.31234e-14 -8.54775e-11 -8.54775e-11 -8.54776e-11
2 1 -1.31234e-14 0.5 0.5 -8.54775e-11 8.54775e-11 8.54776e-11
3 1 0.5 -1.31234e-14 0.5 8.54776e-11 -8.54775e-11 8.54777e-11
4 1 0.5 0.5 -1.31234e-14 8.54776e-11 8.54775e-11 -8.54774e-11
ITEM: TIMESTEP
300
ITEM: NUMBER OF ATOMS
4
ITEM: BOX BOUNDS xy xz yz pp pp pp
6.0058299682499990e-02 3.9438283458174581e+00 0.0000000000000000e+00
6.0058299682499990e-02 3.9438283458174581e+00 0.0000000000000000e+00
6.0058299682499990e-02 3.9438283458174581e+00 0.0000000000000000e+00
ITEM: ATOMS id type xs ys zs fx fy fz
1 1 -2.41696e-14 -2.41696e-14 -2.41696e-14 -1.10259e-10 -1.10259e-10 -1.10259e-10
2 1 -2.41696e-14 0.5 0.5 -1.10259e-10 1.10259e-10 1.10259e-10
3 1 0.5 -2.41696e-14 0.5 1.10259e-10 -1.10259e-10 1.10259e-10
4 1 0.5 0.5 -2.41696e-14 1.10259e-10 1.10259e-10 -1.10259e-10
ITEM: TIMESTEP
400
ITEM: NUMBER OF ATOMS
4
ITEM: BOX BOUNDS xy xz yz pp pp pp
8.0077732909999991e-02 3.9238089125899442e+00 0.0000000000000000e+00
8.0077732909999991e-02 3.9238089125899442e+00 0.0000000000000000e+00
8.0077732909999991e-02 3.9238089125899442e+00 0.0000000000000000e+00
ITEM: ATOMS id type xs ys zs fx fy fz
1 1 -3.93581e-14 -3.93581e-14 -3.93581e-14 -1.37391e-10 -1.3739e-10 -1.37389e-10
2 1 -3.93581e-14 0.5 0.5 -1.3739e-10 1.3739e-10 1.3739e-10
3 1 0.5 -3.93581e-14 0.5 1.3739e-10 -1.3739e-10 1.3739e-10
4 1 0.5 0.5 -3.93581e-14 1.3739e-10 1.3739e-10 -1.3739e-10
ITEM: TIMESTEP
500
ITEM: NUMBER OF ATOMS
4
ITEM: BOX BOUNDS xy xz yz pp pp pp
1.0009716613749998e-01 3.9037894793624304e+00 0.0000000000000000e+00
1.0009716613749998e-01 3.9037894793624304e+00 0.0000000000000000e+00
1.0009716613749998e-01 3.9037894793624304e+00 0.0000000000000000e+00
ITEM: ATOMS id type xs ys zs fx fy fz
1 1 -6.03536e-14 -6.03536e-14 -6.03536e-14 -1.66986e-10 -1.66986e-10 -1.66986e-10
2 1 -6.03536e-14 0.5 0.5 -1.66986e-10 1.66986e-10 1.66986e-10
3 1 0.5 -6.03536e-14 0.5 1.66986e-10 -1.66986e-10 1.66986e-10
4 1 0.5 0.5 -6.03536e-14 1.66986e-10 1.66986e-10 -1.66986e-10
ITEM: TIMESTEP
600
ITEM: NUMBER OF ATOMS
4
ITEM: BOX BOUNDS xy xz yz pp pp pp
1.2011659936499998e-01 3.8837700461349165e+00 0.0000000000000000e+00
1.2011659936499998e-01 3.8837700461349165e+00 0.0000000000000000e+00
1.2011659936499998e-01 3.8837700461349165e+00 0.0000000000000000e+00
ITEM: ATOMS id type xs ys zs fx fy fz
1 1 -9.00222e-14 -9.00222e-14 -9.00222e-14 -1.99253e-10 -1.99253e-10 -1.99253e-10
2 1 -9.00222e-14 0.5 0.5 -1.99252e-10 1.99253e-10 1.99253e-10
3 1 0.5 -9.00222e-14 0.5 1.99253e-10 -1.99252e-10 1.99253e-10
4 1 0.5 0.5 -9.00222e-14 1.99253e-10 1.99252e-10 -1.99252e-10
ITEM: TIMESTEP
700
ITEM: NUMBER OF ATOMS
4
ITEM: BOX BOUNDS xy xz yz pp pp pp
1.4013603259249999e-01 3.8637506129074026e+00 0.0000000000000000e+00
1.4013603259249999e-01 3.8637506129074026e+00 0.0000000000000000e+00
1.4013603259249999e-01 3.8637506129074026e+00 0.0000000000000000e+00
ITEM: ATOMS id type xs ys zs fx fy fz
1 1 -1.34126e-13 -1.34126e-13 -1.34126e-13 -2.34058e-10 -2.34058e-10 -2.34058e-10
2 1 -1.34126e-13 0.5 0.5 -2.34057e-10 2.34057e-10 2.34057e-10
3 1 0.5 -1.34126e-13 0.5 2.34057e-10 -2.34057e-10 2.34057e-10
4 1 0.5 0.5 -1.34126e-13 2.34057e-10 2.34057e-10 -2.34057e-10
ITEM: TIMESTEP
800
ITEM: NUMBER OF ATOMS
4
ITEM: BOX BOUNDS xy xz yz pp pp pp
1.6015546581999998e-01 3.8437311796798888e+00 0.0000000000000000e+00
1.6015546581999998e-01 3.8437311796798888e+00 0.0000000000000000e+00
1.6015546581999998e-01 3.8437311796798888e+00 0.0000000000000000e+00
ITEM: ATOMS id type xs ys zs fx fy fz
1 1 -2.07362e-13 -2.07362e-13 -2.07362e-13 -2.70559e-10 -2.70559e-10 -2.70559e-10
2 1 -2.07362e-13 0.5 0.5 -2.70559e-10 2.70559e-10 2.70559e-10
3 1 0.5 -2.07362e-13 0.5 2.70559e-10 -2.70559e-10 2.70559e-10
4 1 0.5 0.5 -2.07362e-13 2.70559e-10 2.70559e-10 -2.70559e-10
ITEM: TIMESTEP
900
ITEM: NUMBER OF ATOMS
4
ITEM: BOX BOUNDS xy xz yz pp pp pp
1.8017489904749998e-01 3.8237117464523749e+00 0.0000000000000000e+00
1.8017489904749998e-01 3.8237117464523749e+00 0.0000000000000000e+00
1.8017489904749998e-01 3.8237117464523749e+00 0.0000000000000000e+00
ITEM: ATOMS id type xs ys zs fx fy fz
1 1 -3.64357e-13 -3.64357e-13 -3.64357e-13 -3.05445e-10 -3.05445e-10 -3.05445e-10
2 1 -3.64357e-13 0.5 0.5 -3.05445e-10 3.05445e-10 3.05445e-10
3 1 0.5 -3.64357e-13 0.5 3.05445e-10 -3.05445e-10 3.05445e-10
4 1 0.5 0.5 -3.64357e-13 3.05445e-10 3.05445e-10 -3.05445e-10
ITEM: TIMESTEP
975
ITEM: NUMBER OF ATOMS
4
ITEM: BOX BOUNDS xy xz yz pp pp pp
1.9444329364218668e-01 3.8094433518576785e+00 0.0000000000000000e+00
1.9444329364218668e-01 3.8094433518576785e+00 0.0000000000000000e+00
1.9444329364218668e-01 3.8094433518576785e+00 0.0000000000000000e+00
ITEM: ATOMS id type xs ys zs fx fy fz
1 1 -6.14965e-12 -6.14965e-12 -6.14965e-12 -5.34059e-12 -5.3406e-12 -5.34061e-12
2 1 -6.14962e-12 0.5 0.5 -5.3435e-12 5.34206e-12 5.34205e-12
3 1 0.5 -6.14962e-12 0.5 5.34214e-12 -5.34356e-12 5.34206e-12
4 1 0.5 0.5 -6.14962e-12 5.34206e-12 5.34204e-12 -5.34357e-12
ITEM: TIMESTEP
976
ITEM: NUMBER OF ATOMS
4
ITEM: BOX BOUNDS xy xz yz pp pp pp
1.9444329364220544e-01 3.8094433518576598e+00 0.0000000000000000e+00
1.9444329364220542e-01 3.8094433518576598e+00 0.0000000000000000e+00
1.9444329364220533e-01 3.8094433518576598e+00 0.0000000000000000e+00
ITEM: ATOMS id type xs ys zs fx fy fz
1 1 1 1 1 -4.21885e-15 -2.67581e-15 -6.95277e-15
2 1 1 0.5 0.5 -4.21885e-15 4.13818e-15 8.34055e-15
3 1 0.5 1 0.5 4.09395e-15 -4.20497e-15 8.403e-15
4 1 0.5 0.5 1 4.30211e-15 2.83107e-15 -9.78731e-15
ITEM: TIMESTEP
977
ITEM: NUMBER OF ATOMS
4
ITEM: BOX BOUNDS xy xz yz pp pp pp
1.9444329364218907e-01 3.8094433518576762e+00 -5.5237580417701144e-17
1.9444329364218910e-01 3.8094433518576762e+00 -5.7082249151501910e-17
1.9444329364218910e-01 3.8094433518576762e+00 -6.0425711231515829e-17
ITEM: ATOMS id type xs ys zs fx fy fz
1 1 1 1 1 -6.41154e-15 -2.86967e-15 -6.34909e-15
2 1 1 0.5 0.5 -6.41154e-15 2.81199e-15 6.4497e-15
3 1 0.5 1 0.5 6.45317e-15 -2.85882e-15 6.3699e-15
4 1 0.5 0.5 1 6.41848e-15 2.84495e-15 -6.34909e-15
