 # Fcc Cu oriented X=[-110] Y=[111] Z=[11-2].
 CRYSTAL
 PRIMVEC
    127.80955070        0.00000000        0.00000000
      0.00000000      125.22727339        0.00000000
      0.00000000        0.00000000        4.42745271
 CONVVEC
    127.80955070        0.00000000        0.00000000
      0.00000000      125.22727339        0.00000000
      0.00000000        0.00000000        4.42745271
 PRIMCOORD
     6000 1
29        0.00000000        0.00000000        0.00000000
29        0.00000000        4.17424245        2.95163514
29        0.00000000        2.08712122        1.47581757
29        1.27809551        0.00000000        2.21372636
29        1.27809551        2.08712122        3.68954393
29        1.27809551        4.17424245        0.73790879
29        2.55619101        0.00000000        0.00000000
29        2.55619101        4.17424245        2.95163514
29        2.55619101        2.08712122        1.47581757
29        3.83428652        0.00000000        2.21372636
29        3.83428652        2.08712122        3.68954393
29        3.83428652        4.17424245        0.73790879
29        5.11238203        0.00000000        0.00000000
29        5.11238203        4.17424245        2.95163514
29        5.11238203        2.08712122        1.47581757
29        6.39047753        0.00000000        2.21372636
29        6.39047753        2.08712122        3.68954393
29        6.39047753        4.17424245        0.73790879
29        7.66857304        0.00000000        0.00000000
29        7.66857304        4.17424245        2.95163514
29        7.66857304        2.08712122        1.47581757
29        8.94666855        0.00000000        2.21372636
29        8.94666855        2.08712122        3.68954393
29        8.94666855        4.17424245        0.73790879
29       10.22476406        0.00000000        0.00000000
29       10.22476406        4.17424245        2.95163514
29       10.22476406        2.08712122        1.47581757
29       11.50285956        0.00000000        2.21372636
29       11.50285956        2.08712122        3.68954393
29       11.50285956        4.17424245        0.73790879
29       12.78095507        0.00000000        0.00000000
29       12.78095507        4.17424245        2.95163514
29       12.78095507        2.08712122        1.47581757
29       14.05905058        0.00000000        2.21372636
29       14.05905058        2.08712122        3.68954393
29       14.05905058        4.17424245        0.73790879
29       15.33714608        0.00000000        0.00000000
29       15.33714608        4.17424245        2.95163514
29       15.33714608        2.08712122        1.47581757
29       16.61524159        0.00000000        2.21372636
29       16.61524159        2.08712122        3.68954393
29       16.61524159        4.17424245        0.73790879
29       17.89333710        0.00000000        0.00000000
29       17.89333710        4.17424245        2.95163514
29       17.89333710        2.08712122        1.47581757
29       19.17143260        0.00000000        2.21372636
29       19.17143260        2.08712122        3.68954393
29       19.17143260        4.17424245        0.73790879
29       20.44952811        0.00000000        0.00000000
29       20.44952811        4.17424245        2.95163514
29       20.44952811        2.08712122        1.47581757
29       21.72762362        0.00000000        2.21372636
29       21.72762362        2.08712122        3.68954393
29       21.72762362        4.17424245        0.73790879
29       23.00571913        0.00000000        0.00000000
29       23.00571913        4.17424245        2.95163514
29       23.00571913        2.08712122        1.47581757
29       24.28381463        0.00000000        2.21372636
29       24.28381463        2.08712122        3.68954393
29       24.28381463        4.17424245        0.73790879
29       25.56191014        0.00000000        0.00000000
29       25.56191014        4.17424245        2.95163514
29       25.56191014        2.08712122        1.47581757
29       26.84000565        0.00000000        2.21372636
29       26.84000565        2.08712122        3.68954393
29       26.84000565        4.17424245        0.73790879
29       28.11810115        0.00000000        0.00000000
29       28.11810115        4.17424245        2.95163514
29       28.11810115        2.08712122        1.47581757
29       29.39619666        0.00000000        2.21372636
29       29.39619666        2.08712122        3.68954393
29       29.39619666        4.17424245        0.73790879
29       30.67429217        0.00000000        0.00000000
29       30.67429217        4.17424245        2.95163514
29       30.67429217        2.08712122        1.47581757
29       31.95238767        0.00000000        2.21372636
29       31.95238767        2.08712122        3.68954393
29       31.95238767        4.17424245        0.73790879
29       33.23048318        0.00000000        0.00000000
29       33.23048318        4.17424245        2.95163514
29       33.23048318        2.08712122        1.47581757
29       34.50857869        0.00000000        2.21372636
29       34.50857869        2.08712122        3.68954393
29       34.50857869        4.17424245        0.73790879
29       35.78667420        0.00000000        0.00000000
29       35.78667420        4.17424245        2.95163514
29       35.78667420        2.08712122        1.47581757
29       37.06476970        0.00000000        2.21372636
29       37.06476970        2.08712122        3.68954393
29       37.06476970        4.17424245        0.73790879
29       38.34286521        0.00000000        0.00000000
29       38.34286521        4.17424245        2.95163514
29       38.34286521        2.08712122        1.47581757
29       39.62096072        0.00000000        2.21372636
29       39.62096072        2.08712122        3.68954393
29       39.62096072        4.17424245        0.73790879
29       40.89905622        0.00000000        0.00000000
29       40.89905622        4.17424245        2.95163514
29       40.89905622        2.08712122        1.47581757
29       42.17715173        0.00000000        2.21372636
29       42.17715173        2.08712122        3.68954393
29       42.17715173        4.17424245        0.73790879
29       43.45524724        0.00000000        0.00000000
29       43.45524724        4.17424245        2.95163514
29       43.45524724        2.08712122        1.47581757
29       44.73334274        0.00000000        2.21372636
29       44.73334274        2.08712122        3.68954393
29       44.73334274        4.17424245        0.73790879
29       46.01143825        0.00000000        0.00000000
29       46.01143825        4.17424245        2.95163514
29       46.01143825        2.08712122        1.47581757
29       47.28953376        0.00000000        2.21372636
29       47.28953376        2.08712122        3.68954393
29       47.28953376        4.17424245        0.73790879
29       48.56762927        0.00000000        0.00000000
29       48.56762927        4.17424245        2.95163514
29       48.56762927        2.08712122        1.47581757
29       49.84572477        0.00000000        2.21372636
29       49.84572477        2.08712122        3.68954393
29       49.84572477        4.17424245        0.73790879
29       51.12382028        0.00000000        0.00000000
29       51.12382028        4.17424245        2.95163514
29       51.12382028        2.08712122        1.47581757
29       52.40191579        0.00000000        2.21372636
29       52.40191579        2.08712122        3.68954393
29       52.40191579        4.17424245        0.73790879
29       53.68001129        0.00000000        0.00000000
29       53.68001129        4.17424245        2.95163514
29       53.68001129        2.08712122        1.47581757
29       54.95810680        0.00000000        2.21372636
29       54.95810680        2.08712122        3.68954393
29       54.95810680        4.17424245        0.73790879
29       56.23620231        0.00000000        0.00000000
29       56.23620231        4.17424245        2.95163514
29       56.23620231        2.08712122        1.47581757
29       57.51429781        0.00000000        2.21372636
29       57.51429781        2.08712122        3.68954393
29       57.51429781        4.17424245        0.73790879
29       58.79239332        0.00000000        0.00000000
29       58.79239332        4.17424245        2.95163514
29       58.79239332        2.08712122        1.47581757
29       60.07048883        0.00000000        2.21372636
29       60.07048883        2.08712122        3.68954393
29       60.07048883        4.17424245        0.73790879
29       61.34858434        0.00000000        0.00000000
29       61.34858434        4.17424245        2.95163514
29       61.34858434        2.08712122        1.47581757
29       62.62667984        0.00000000        2.21372636
29       62.62667984        2.08712122        3.68954393
29       62.62667984        4.17424245        0.73790879
29       63.90477535        0.00000000        0.00000000
29       63.90477535        4.17424245        2.95163514
29       63.90477535        2.08712122        1.47581757
29       65.18287086        0.00000000        2.21372636
29       65.18287086        2.08712122        3.68954393
29       65.18287086        4.17424245        0.73790879
29       66.46096636        0.00000000        0.00000000
29       66.46096636        4.17424245        2.95163514
29       66.46096636        2.08712122        1.47581757
29       67.73906187        0.00000000        2.21372636
29       67.73906187        2.08712122        3.68954393
29       67.73906187        4.17424245        0.73790879
29       69.01715738        0.00000000        0.00000000
29       69.01715738        4.17424245        2.95163514
29       69.01715738        2.08712122        1.47581757
29       70.29525288        0.00000000        2.21372636
29       70.29525288        2.08712122        3.68954393
29       70.29525288        4.17424245        0.73790879
29       71.57334839        0.00000000        0.00000000
29       71.57334839        4.17424245        2.95163514
29       71.57334839        2.08712122        1.47581757
29       72.85144390        0.00000000        2.21372636
29       72.85144390        2.08712122        3.68954393
29       72.85144390        4.17424245        0.73790879
29       74.12953941        0.00000000        0.00000000
29       74.12953941        4.17424245        2.95163514
29       74.12953941        2.08712122        1.47581757
29       75.40763491        0.00000000        2.21372636
29       75.40763491        2.08712122        3.68954393
29       75.40763491        4.17424245        0.73790879
29       76.68573042        0.00000000        0.00000000
29       76.68573042        4.17424245        2.95163514
29       76.68573042        2.08712122        1.47581757
29       77.96382593        0.00000000        2.21372636
29       77.96382593        2.08712122        3.68954393
29       77.96382593        4.17424245        0.73790879
29       79.24192143        0.00000000        0.00000000
29       79.24192143        4.17424245        2.95163514
29       79.24192143        2.08712122        1.47581757
29       80.52001694        0.00000000        2.21372636
29       80.52001694        2.08712122        3.68954393
29       80.52001694        4.17424245        0.73790879
29       81.79811245        0.00000000        0.00000000
29       81.79811245        4.17424245        2.95163514
29       81.79811245        2.08712122        1.47581757
29       83.07620795        0.00000000        2.21372636
29       83.07620795        2.08712122        3.68954393
29       83.07620795        4.17424245        0.73790879
29       84.35430346        0.00000000        0.00000000
29       84.35430346        4.17424245        2.95163514
29       84.35430346        2.08712122        1.47581757
29       85.63239897        0.00000000        2.21372636
29       85.63239897        2.08712122        3.68954393
29       85.63239897        4.17424245        0.73790879
29       86.91049448        0.00000000        0.00000000
29       86.91049448        4.17424245        2.95163514
29       86.91049448        2.08712122        1.47581757
29       88.18858998        0.00000000        2.21372636
29       88.18858998        2.08712122        3.68954393
29       88.18858998        4.17424245        0.73790879
29       89.46668549        0.00000000        0.00000000
29       89.46668549        4.17424245        2.95163514
29       89.46668549        2.08712122        1.47581757
29       90.74478100        0.00000000        2.21372636
29       90.74478100        2.08712122        3.68954393
29       90.74478100        4.17424245        0.73790879
29       92.02287650        0.00000000        0.00000000
29       92.02287650        4.17424245        2.95163514
29       92.02287650        2.08712122        1.47581757
29       93.30097201        0.00000000        2.21372636
29       93.30097201        2.08712122        3.68954393
29       93.30097201        4.17424245        0.73790879
29       94.57906752        0.00000000        0.00000000
29       94.57906752        4.17424245        2.95163514
29       94.57906752        2.08712122        1.47581757
29       95.85716302        0.00000000        2.21372636
29       95.85716302        2.08712122        3.68954393
29       95.85716302        4.17424245        0.73790879
29       97.13525853        0.00000000        0.00000000
29       97.13525853        4.17424245        2.95163514
29       97.13525853        2.08712122        1.47581757
29       98.41335404        0.00000000        2.21372636
29       98.41335404        2.08712122        3.68954393
29       98.41335404        4.17424245        0.73790879
29       99.69144955        0.00000000        0.00000000
29       99.69144955        4.17424245        2.95163514
29       99.69144955        2.08712122        1.47581757
29      100.96954505        0.00000000        2.21372636
29      100.96954505        2.08712122        3.68954393
29      100.96954505        4.17424245        0.73790879
29      102.24764056        0.00000000        0.00000000
29      102.24764056        4.17424245        2.95163514
29      102.24764056        2.08712122        1.47581757
29      103.52573607        0.00000000        2.21372636
29      103.52573607        2.08712122        3.68954393
29      103.52573607        4.17424245        0.73790879
29      104.80383157        0.00000000        0.00000000
29      104.80383157        4.17424245        2.95163514
29      104.80383157        2.08712122        1.47581757
29      106.08192708        0.00000000        2.21372636
29      106.08192708        2.08712122        3.68954393
29      106.08192708        4.17424245        0.73790879
29      107.36002259        0.00000000        0.00000000
29      107.36002259        4.17424245        2.95163514
29      107.36002259        2.08712122        1.47581757
29      108.63811809        0.00000000        2.21372636
29      108.63811809        2.08712122        3.68954393
29      108.63811809        4.17424245        0.73790879
29      109.91621360        0.00000000        0.00000000
29      109.91621360        4.17424245        2.95163514
29      109.91621360        2.08712122        1.47581757
29      111.19430911        0.00000000        2.21372636
29      111.19430911        2.08712122        3.68954393
29      111.19430911        4.17424245        0.73790879
29      112.47240462        0.00000000        0.00000000
29      112.47240462        4.17424245        2.95163514
29      112.47240462        2.08712122        1.47581757
29      113.75050012        0.00000000        2.21372636
29      113.75050012        2.08712122        3.68954393
29      113.75050012        4.17424245        0.73790879
29      115.02859563        0.00000000        0.00000000
29      115.02859563        4.17424245        2.95163514
29      115.02859563        2.08712122        1.47581757
29      116.30669114        0.00000000        2.21372636
29      116.30669114        2.08712122        3.68954393
29      116.30669114        4.17424245        0.73790879
29      117.58478664        0.00000000        0.00000000
29      117.58478664        4.17424245        2.95163514
29      117.58478664        2.08712122        1.47581757
29      118.86288215        0.00000000        2.21372636
29      118.86288215        2.08712122        3.68954393
29      118.86288215        4.17424245        0.73790879
29      120.14097766        0.00000000        0.00000000
29      120.14097766        4.17424245        2.95163514
29      120.14097766        2.08712122        1.47581757
29      121.41907316        0.00000000        2.21372636
29      121.41907316        2.08712122        3.68954393
29      121.41907316        4.17424245        0.73790879
29      122.69716867        0.00000000        0.00000000
29      122.69716867        4.17424245        2.95163514
29      122.69716867        2.08712122        1.47581757
29      123.97526418        0.00000000        2.21372636
29      123.97526418        2.08712122        3.68954393
29      123.97526418        4.17424245        0.73790879
29      125.25335969        0.00000000        0.00000000
29      125.25335969        4.17424245        2.95163514
29      125.25335969        2.08712122        1.47581757
29      126.53145519        0.00000000        2.21372636
29      126.53145519        2.08712122        3.68954393
29      126.53145519        4.17424245        0.73790879
29        0.00000000        6.26136367        0.00000000
29        0.00000000       10.43560612        2.95163514
29        0.00000000        8.34848489        1.47581757
29        1.27809551        6.26136367        2.21372636
29        1.27809551        8.34848489        3.68954393
29        1.27809551       10.43560612        0.73790879
29        2.55619101        6.26136367        0.00000000
29        2.55619101       10.43560612        2.95163514
29        2.55619101        8.34848489        1.47581757
29        3.83428652        6.26136367        2.21372636
29        3.83428652        8.34848489        3.68954393
29        3.83428652       10.43560612        0.73790879
29        5.11238203        6.26136367        0.00000000
29        5.11238203       10.43560612        2.95163514
29        5.11238203        8.34848489        1.47581757
29        6.39047753        6.26136367        2.21372636
29        6.39047753        8.34848489        3.68954393
29        6.39047753       10.43560612        0.73790879
29        7.66857304        6.26136367        0.00000000
29        7.66857304       10.43560612        2.95163514
29        7.66857304        8.34848489        1.47581757
29        8.94666855        6.26136367        2.21372636
29        8.94666855        8.34848489        3.68954393
29        8.94666855       10.43560612        0.73790879
29       10.22476406        6.26136367        0.00000000
29       10.22476406       10.43560612        2.95163514
29       10.22476406        8.34848489        1.47581757
29       11.50285956        6.26136367        2.21372636
29       11.50285956        8.34848489        3.68954393
29       11.50285956       10.43560612        0.73790879
29       12.78095507        6.26136367        0.00000000
29       12.78095507       10.43560612        2.95163514
29       12.78095507        8.34848489        1.47581757
29       14.05905058        6.26136367        2.21372636
29       14.05905058        8.34848489        3.68954393
29       14.05905058       10.43560612        0.73790879
29       15.33714608        6.26136367        0.00000000
29       15.33714608       10.43560612        2.95163514
29       15.33714608        8.34848489        1.47581757
29       16.61524159        6.26136367        2.21372636
29       16.61524159        8.34848489        3.68954393
29       16.61524159       10.43560612        0.73790879
29       17.89333710        6.26136367        0.00000000
29       17.89333710       10.43560612        2.95163514
29       17.89333710        8.34848489        1.47581757
29       19.17143260        6.26136367        2.21372636
29       19.17143260        8.34848489        3.68954393
29       19.17143260       10.43560612        0.73790879
29       20.44952811        6.26136367        0.00000000
29       20.44952811       10.43560612        2.95163514
29       20.44952811        8.34848489        1.47581757
29       21.72762362        6.26136367        2.21372636
29       21.72762362        8.34848489        3.68954393
29       21.72762362       10.43560612        0.73790879
29       23.00571913        6.26136367        0.00000000
29       23.00571913       10.43560612        2.95163514
29       23.00571913        8.34848489        1.47581757
29       24.28381463        6.26136367        2.21372636
29       24.28381463        8.34848489        3.68954393
29       24.28381463       10.43560612        0.73790879
29       25.56191014        6.26136367        0.00000000
29       25.56191014       10.43560612        2.95163514
29       25.56191014        8.34848489        1.47581757
29       26.84000565        6.26136367        2.21372636
29       26.84000565        8.34848489        3.68954393
29       26.84000565       10.43560612        0.73790879
29       28.11810115        6.26136367        0.00000000
29       28.11810115       10.43560612        2.95163514
29       28.11810115        8.34848489        1.47581757
29       29.39619666        6.26136367        2.21372636
29       29.39619666        8.34848489        3.68954393
29       29.39619666       10.43560612        0.73790879
29       30.67429217        6.26136367        0.00000000
29       30.67429217       10.43560612        2.95163514
29       30.67429217        8.34848489        1.47581757
29       31.95238767        6.26136367        2.21372636
29       31.95238767        8.34848489        3.68954393
29       31.95238767       10.43560612        0.73790879
29       33.23048318        6.26136367        0.00000000
29       33.23048318       10.43560612        2.95163514
29       33.23048318        8.34848489        1.47581757
29       34.50857869        6.26136367        2.21372636
29       34.50857869        8.34848489        3.68954393
29       34.50857869       10.43560612        0.73790879
29       35.78667420        6.26136367        0.00000000
29       35.78667420       10.43560612        2.95163514
29       35.78667420        8.34848489        1.47581757
29       37.06476970        6.26136367        2.21372636
29       37.06476970        8.34848489        3.68954393
29       37.06476970       10.43560612        0.73790879
29       38.34286521        6.26136367        0.00000000
29       38.34286521       10.43560612        2.95163514
29       38.34286521        8.34848489        1.47581757
29       39.62096072        6.26136367        2.21372636
29       39.62096072        8.34848489        3.68954393
29       39.62096072       10.43560612        0.73790879
29       40.89905622        6.26136367        0.00000000
29       40.89905622       10.43560612        2.95163514
29       40.89905622        8.34848489        1.47581757
29       42.17715173        6.26136367        2.21372636
29       42.17715173        8.34848489        3.68954393
29       42.17715173       10.43560612        0.73790879
29       43.45524724        6.26136367        0.00000000
29       43.45524724       10.43560612        2.95163514
29       43.45524724        8.34848489        1.47581757
29       44.73334274        6.26136367        2.21372636
29       44.73334274        8.34848489        3.68954393
29       44.73334274       10.43560612        0.73790879
29       46.01143825        6.26136367        0.00000000
29       46.01143825       10.43560612        2.95163514
29       46.01143825        8.34848489        1.47581757
29       47.28953376        6.26136367        2.21372636
29       47.28953376        8.34848489        3.68954393
29       47.28953376       10.43560612        0.73790879
29       48.56762927        6.26136367        0.00000000
29       48.56762927       10.43560612        2.95163514
29       48.56762927        8.34848489        1.47581757
29       49.84572477        6.26136367        2.21372636
29       49.84572477        8.34848489        3.68954393
29       49.84572477       10.43560612        0.73790879
29       51.12382028        6.26136367        0.00000000
29       51.12382028       10.43560612        2.95163514
29       51.12382028        8.34848489        1.47581757
29       52.40191579        6.26136367        2.21372636
29       52.40191579        8.34848489        3.68954393
29       52.40191579       10.43560612        0.73790879
29       53.68001129        6.26136367        0.00000000
29       53.68001129       10.43560612        2.95163514
29       53.68001129        8.34848489        1.47581757
29       54.95810680        6.26136367        2.21372636
29       54.95810680        8.34848489        3.68954393
29       54.95810680       10.43560612        0.73790879
29       56.23620231        6.26136367        0.00000000
29       56.23620231       10.43560612        2.95163514
29       56.23620231        8.34848489        1.47581757
29       57.51429781        6.26136367        2.21372636
29       57.51429781        8.34848489        3.68954393
29       57.51429781       10.43560612        0.73790879
29       58.79239332        6.26136367        0.00000000
29       58.79239332       10.43560612        2.95163514
29       58.79239332        8.34848489        1.47581757
29       60.07048883        6.26136367        2.21372636
29       60.07048883        8.34848489        3.68954393
29       60.07048883       10.43560612        0.73790879
29       61.34858434        6.26136367        0.00000000
29       61.34858434       10.43560612        2.95163514
29       61.34858434        8.34848489        1.47581757
29       62.62667984        6.26136367        2.21372636
29       62.62667984        8.34848489        3.68954393
29       62.62667984       10.43560612        0.73790879
29       63.90477535        6.26136367        0.00000000
29       63.90477535       10.43560612        2.95163514
29       63.90477535        8.34848489        1.47581757
29       65.18287086        6.26136367        2.21372636
29       65.18287086        8.34848489        3.68954393
29       65.18287086       10.43560612        0.73790879
29       66.46096636        6.26136367        0.00000000
29       66.46096636       10.43560612        2.95163514
29       66.46096636        8.34848489        1.47581757
29       67.73906187        6.26136367        2.21372636
29       67.73906187        8.34848489        3.68954393
29       67.73906187       10.43560612        0.73790879
29       69.01715738        6.26136367        0.00000000
29       69.01715738       10.43560612        2.95163514
29       69.01715738        8.34848489        1.47581757
29       70.29525288        6.26136367        2.21372636
29       70.29525288        8.34848489        3.68954393
29       70.29525288       10.43560612        0.73790879
29       71.57334839        6.26136367        0.00000000
29       71.57334839       10.43560612        2.95163514
29       71.57334839        8.34848489        1.47581757
29       72.85144390        6.26136367        2.21372636
29       72.85144390        8.34848489        3.68954393
29       72.85144390       10.43560612        0.73790879
29       74.12953941        6.26136367        0.00000000
29       74.12953941       10.43560612        2.95163514
29       74.12953941        8.34848489        1.47581757
29       75.40763491        6.26136367        2.21372636
29       75.40763491        8.34848489        3.68954393
29       75.40763491       10.43560612        0.73790879
29       76.68573042        6.26136367        0.00000000
29       76.68573042       10.43560612        2.95163514
29       76.68573042        8.34848489        1.47581757
29       77.96382593        6.26136367        2.21372636
29       77.96382593        8.34848489        3.68954393
29       77.96382593       10.43560612        0.73790879
29       79.24192143        6.26136367        0.00000000
29       79.24192143       10.43560612        2.95163514
29       79.24192143        8.34848489        1.47581757
29       80.52001694        6.26136367        2.21372636
29       80.52001694        8.34848489        3.68954393
29       80.52001694       10.43560612        0.73790879
29       81.79811245        6.26136367        0.00000000
29       81.79811245       10.43560612        2.95163514
29       81.79811245        8.34848489        1.47581757
29       83.07620795        6.26136367        2.21372636
29       83.07620795        8.34848489        3.68954393
29       83.07620795       10.43560612        0.73790879
29       84.35430346        6.26136367        0.00000000
29       84.35430346       10.43560612        2.95163514
29       84.35430346        8.34848489        1.47581757
29       85.63239897        6.26136367        2.21372636
29       85.63239897        8.34848489        3.68954393
29       85.63239897       10.43560612        0.73790879
29       86.91049448        6.26136367        0.00000000
29       86.91049448       10.43560612        2.95163514
29       86.91049448        8.34848489        1.47581757
29       88.18858998        6.26136367        2.21372636
29       88.18858998        8.34848489        3.68954393
29       88.18858998       10.43560612        0.73790879
29       89.46668549        6.26136367        0.00000000
29       89.46668549       10.43560612        2.95163514
29       89.46668549        8.34848489        1.47581757
29       90.74478100        6.26136367        2.21372636
29       90.74478100        8.34848489        3.68954393
29       90.74478100       10.43560612        0.73790879
29       92.02287650        6.26136367        0.00000000
29       92.02287650       10.43560612        2.95163514
29       92.02287650        8.34848489        1.47581757