
3360 atoms
1 atom types
   0.0000000000   62.6136366900 xlo xhi
   0.0000000000   61.9843379400 ylo yhi
   0.0000000000   10.2247640600 zlo zhi
   0.0000000000    0.0000000000    0.0000000000 xy xz yz

Atoms # atomic

     1      1    0.0000000000    0.0000000000   -0.9585111000
     2      1    4.1742426500    2.9516352900   -0.9678174800
     3      1    2.0871210100    1.4758173300   -0.9628738000
     4      1    0.0000000000    2.2137266200    0.3350260500
     5      1    2.0871210100    3.6895439500    0.3314963600
     6      1    4.1742426500    0.7379086700    0.2944798500
     7      1    6.2613636700    0.0000000000   -1.0052479900
     8      1   10.4356063200    2.9516352900   -1.0225629100
     9      1    8.3484846800    1.4758173300   -1.0133219700
    10      1    6.2613636700    2.2137266200    0.2880158600
    11      1    8.3484846800    3.6895439500    0.2806215100
    12      1   10.4356063200    0.7379086700    0.2406461600
    13      1   12.5227273400    0.0000000000   -1.0623347900
    14      1   16.6969699900    2.9516352900   -1.0904843800
    15      1   14.6098483500    1.4758173300   -1.0754249400
    16      1   12.5227273400    2.2137266200    0.2294926800
    17      1   14.6098483500    3.6895439500    0.2166298300
    18      1   16.6969699900    0.7379086700    0.1752726000
    19      1   18.7840910100    0.0000000000   -1.1305613600
    20      1   22.9583336600    2.9516352900   -1.1717376100
    21      1   20.8712120200    1.4758173300   -1.1497572300
    22      1   18.7840910100    2.2137266200    0.1580797600
    23      1   20.8712120200    3.6895439500    0.1382559900
    24      1   22.9583336600    0.7379086700    0.0987021000
    25      1   25.0454546800    0.0000000000   -1.2086149600
    26      1   29.2196973300    2.9516352900   -1.2625531500
    27      1   27.1325756900    1.4758173300   -1.2340115400
    28      1   25.0454546800    2.2137266200    0.0748472200
    29      1   27.1325756900    3.6895439500    0.0477253100
    30      1   29.2196973300    0.7379086700    0.0143776500
    31      1   31.3068183400    0.0000000000    1.2640682600
    32      1   35.4810610000    2.9516352900    1.2012724600
    33      1   33.3939393600    1.4758173300    1.2340115400
    34      1   31.3068183400    2.2137266200    2.5410573400
    35      1   33.3939393600    3.6895439500    2.5084657000
    36      1   35.4810610000    0.7379086700    2.4850082500
    37      1   37.5681820100    0.0000000000    1.1817106400
    38      1   41.7424246700    2.9516352900    1.1161755300
    39      1   39.6553030300    1.4758173300    1.1497573400
    40      1   37.5681820100    2.2137266200    2.4525108800
    41      1   39.6553030300    3.6895439500    2.4179350300
    42      1   41.7424246700    0.7379086700    2.4052941500
    43      1   43.8295456800    0.0000000000    1.1066042300
    44      1   48.0037883400    2.9516352900    1.0436732600
    45      1   45.9166667000    1.4758173300    1.0754249400
    46      1   43.8295456800    2.2137266200    2.3728683600
    47      1   45.9166667000    3.6895439500    2.3395611900
    48      1   48.0037883400    0.7379086700    2.3360207600
    49      1   50.0909093500    0.0000000000    1.0420772800
    50      1   54.2651520100    2.9516352900    0.9847095000
    51      1   52.1780303700    1.4758173300    1.0133219700
    52      1   50.0909093500    2.2137266200    2.3057951300
    53      1   52.1780303700    3.6895439500    2.2755696000
    54      1   54.2651520100    0.7379086700    2.2784390800
    55      1   56.3522730200    0.0000000000    0.9885924600
    56      1   60.5265156800    2.9516352900    0.9376665900
    57      1   58.4393940400    1.4758173300    0.9628738000
    58      1   56.3522730200    2.2137266200    2.2513281200
    59      1   58.4393940400    3.6895439500    2.2246946600
    60      1   60.5265156800    0.7379086700    2.2315843100
    61      1    0.0000000000    4.4274526200   -0.9264601500
    62      1    4.1742426500    7.3790879100   -0.9319068800
    63      1    2.0871210100    5.9032705800   -0.9289975200
    64      1    0.0000000000    6.6411792400    0.3694879000
    65      1    2.0871210100    8.1169965800    0.3681212600
    66      1    4.1742426500    5.1653612900    0.3274731200
    67      1    6.2613636700    4.4274526200   -0.9734646100
    68      1   10.4356063200    7.3790879100   -0.9875562800
    69      1    8.3484846800    5.9032705800   -0.9799743100
    70      1    6.2613636700    6.6411792400    0.3228459000
    71      1    8.3484846800    8.1169965800    0.3174691100
    72      1   10.4356063200    5.1653612900    0.2720864900
    73      1   12.5227273400    4.4274526200   -1.0332314300
    74      1   16.6969699900    7.3790879100   -1.0603195900
    75      1   14.6098483500    5.9032705800   -1.0456675000
    76      1   12.5227273400    6.6411792400    0.2621343200
    77      1   14.6098483500    8.1169965800    0.2503958800
    78      1   16.6969699900    5.1653612900    0.2016647600
    79      1   18.7840910100    4.4274526200   -1.1079414300
    80      1   22.9583336600    7.3790879100   -1.1523430800
    81      1   20.8712120200    5.9032705800   -1.1283356400
    82      1   18.7840910100    6.6411792400    0.1840887000
    83      1   20.8712120200    8.1169965800    0.1632395900
    84      1   22.9583336600    5.1653612900    0.1152667300
    85      1   25.0454546800    4.4274526200   -1.1969950300
    86      1   29.2196973300    7.3790879100   -1.2595488100
    87      1   27.1325756900    5.9032705800   -1.2260767100
    88      1   25.0454546800    6.6411792400    0.0884759100
    89      1   27.1325756900    8.1169965800    0.0571555100
    90      1   29.2196973300    5.1653612900    0.0169121700
    91      1   31.3068183400    4.4274526200    1.2616660500
    92      1   35.4810610000    7.3790879100    1.1868588100
    93      1   33.3939393600    5.9032705800    1.2260767100
    94      1   31.3068183400    6.6411792400    2.5382231400
    95      1   33.3939393600    8.1169965800    2.4990355000
    96      1   35.4810610000    5.1653612900    2.4727706400
    97      1   37.5681820100    4.4274526200    1.1659556100
    98      1   41.7424246700    7.3790879100    1.0888783800
    99      1   39.6553030300    5.9032705800    1.1283356400
   100      1   37.5681820100    6.6411792400    2.4341334100
   101      1   39.6553030300    8.1169965800    2.3929514300
   102      1   41.7424246700    5.1653612900    2.3816175900
   103      1   43.8295456800    4.4274526200    1.0813254400
   104      1   48.0037883400    7.3790879100    1.0097317500
   105      1   45.9166667000    5.9032705800    1.0456675000
   106      1   43.8295456800    6.6411792400    2.3440384100
   107      1   45.9166667000    8.1169965800    2.3057951300
   108      1   48.0037883400    5.1653612900    2.3057951300
   109      1   50.0909093500    4.4274526200    1.0117259900
   110      1   54.2651520100    7.3790879100    0.9487951200
   111      1   52.1780303700    5.9032705800    0.9799743100
   112      1   50.0909093500    6.6411792400    2.2720290800
   113      1   52.1780303700    8.1169965800    2.2387219100
   114      1   54.2651520100    5.1653612900    2.2456740300
   115      1   56.3522730200    4.4274526200    0.9565168600
   116      1   60.5265156800    7.3790879100    0.9023683500
   117      1   58.4393940400    5.9032705800    0.9289975200
   118      1   56.3522730200    6.6411792400    2.2164174000
   119      1   58.4393940400    8.1169965800    2.1880697500
   120      1   60.5265156800    5.1653612900    2.1987465600
   121      1    0.0000000000    8.8549052400   -0.8894436400
   122      1    4.1742426500   11.8065405300   -0.8894436400
   123      1    2.0871210100   10.3307232000   -0.8894436400
   124      1    0.0000000000   11.0686318600    0.4091824800
   125      1    2.0871210100   12.5444492000    0.4107587300
   126      1    4.1742426500    9.5928139100    0.3665450100
   127      1    6.2613636700    8.8549052400   -0.9352763500
   128      1   10.4356063200   11.8065405300   -0.9439106500
   129      1    8.3484846800   10.3307232000   -0.9392237200
   130      1    6.2613636700   11.0686318600    0.3647068000
   131      1    8.3484846800   12.5444492000    0.3625357800
   132      1   10.4356063200    9.5928139100    0.3111471400
   133      1   12.5227273400    8.8549052400   -0.9964922100
   134      1   16.6969699900   11.8065405300   -1.0201301300
   135      1   14.6098483500   10.3307232000   -1.0071690100
   136      1   12.5227273400   11.0686318600    0.3036107700
   137      1   14.6098483500   12.5444492000    0.2944798500
   138      1   16.6969699900    9.5928139100    0.2363686300
   139      1   18.7840910100    8.8549052400   -1.0777876800
   140      1   22.9583336600   11.8065405300   -1.1247058500
   141      1   20.8712120200   10.3307232000   -1.0988823900
   142      1   18.7840910100   11.0686318600    0.2193564600
   143      1   20.8712120200   12.5444492000    0.1983770900
   144      1   22.9583336600    9.5928139100    0.1382559900
   145      1   25.0454546800    8.8549052400   -1.1807966500
   146      1   29.2196973300   11.8065405300   -1.2551061500
   147      1   27.1325756900   10.3307232000   -1.2146867400
   148      1   25.0454546800   11.0686318600    0.1080304600
   149      1   27.1325756900   12.5444492000    0.0711827600
   150      1   29.2196973300    9.5928139100    0.0205306100
   151      1   31.3068183400    8.8549052400    1.2582717300
   152      1   35.4810610000   11.8065405300    1.1659556100
   153      1   33.3939393600   10.3307232000    1.2146867400
   154      1   31.3068183400   11.0686318600    2.5340841500
   155      1   33.3939393600   12.5444492000    2.4850082500
   156      1   35.4810610000    9.5928139100    2.4555550000
   157      1   37.5681820100    8.8549052400    1.1442651000
   158      1   41.7424246700   11.8065405300    1.0516446900
   159      1   39.6553030300   10.3307232000    1.0988823900
   160      1   37.5681820100   11.0686318600    2.4081853100
   161      1   39.6553030300   12.5444492000    2.3578139300
   162      1   41.7424246700    9.5928139100    2.3498791000
   163      1   43.8295456800    8.8549052400    1.0482302300
   164      1   48.0037883400   11.8065405300    0.9665208700
   165      1   45.9166667000   10.3307232000    1.0071690100
   166      1   43.8295456800   11.0686318600    2.3057951300
   167      1   45.9166667000   12.5444492000    2.2617111600
   168      1   48.0037883400    9.5928139100    2.2675518600
   169      1   50.0909093500    8.8549052400    0.9740738000
   170      1   54.2651520100   11.8065405300    0.9056420100
   171      1   52.1780303700   10.3307232000    0.9392237200
   172      1   50.0909093500   11.0686318600    2.2299727800
   173      1   52.1780303700   12.5444492000    2.1936552400
   174      1   54.2651520100    9.5928139100    2.2062961100
   175      1   56.3522730200    8.8549052400    0.9185254200
   176      1   60.5265156800   11.8065405300    0.8617589600
   177      1   58.4393940400   10.3307232000    0.8894436400
   178      1   56.3522730200   11.0686318600    2.1751086400
   179      1   58.4393940400   12.5444492000    2.1454322800
   180      1   60.5265156800    9.5928139100    2.1608496900
   181      1    0.0000000000   13.2823578600   -0.8469804000
   182      1    4.1742426500   16.2339931500   -0.8396635500
   183      1    2.0871210100   14.7581758200   -0.8436109300
   184      1    0.0000000000   15.4960844900    0.4544578400
   185      1    2.0871210100   16.9719018200    0.4598346300
   186      1    4.1742426500   14.0202671500    0.4125969400
   187      1    6.2613636700   13.2823578600   -0.8894436400
   188      1   10.4356063200   16.2339931500   -0.8894436400
   189      1    8.3484846800   14.7581758200   -0.8894436400
   190      1    6.2613636700   15.4960844900    0.4147679600
   191      1    8.3484846800   16.9719018200    0.4173712900
   192      1   10.4356063200   14.0202671500    0.3599324500
   193      1   12.5227273400   13.2823578600   -0.9495647400
   194      1   16.6969699900   16.2339931500   -0.9652660900
   195      1   14.6098483500   14.7581758200   -0.9565168600
   196      1   12.5227273400   15.4960844900    0.3567537800
   197      1   14.6098483500   16.9719018200    0.3527860600
   198      1   16.6969699900   14.0202671500    0.2832014300
   199      1   18.7840910100   13.2823578600   -1.0361593900
   200      1   22.9583336600   16.2339931500   -1.0826840100
   201      1   20.8712120200   14.7581758200   -1.0564190400
   202      1   18.7840910100   15.4960844900    0.2689425800
   203      1   20.8712120200   16.9719018200    0.2503958800
   204      1   22.9583336600   14.0202671500    0.1720220400
   205      1   25.0454546800   13.2823578600   -1.1567516900
   206      1   29.2196973300   16.2339931500   -1.2478698800
   207      1   27.1325756900   14.7581758200   -1.1969950300
   208      1   25.0454546800   15.4960844900    0.1382559900
   209      1   27.1325756900   16.9719018200    0.0941720200
   210      1   29.2196973300   14.0202671500    0.0261160900
   211      1   31.3068183400   13.2823578600    1.2531119100
   212      1   35.4810610000   16.2339931500    1.1331500700
   213      1   33.3939393600   14.7581758200    1.1969950300
   214      1   31.3068183400   15.4960844900    2.5274716000
   215      1   33.3939393600   16.9719018200    2.4620190000
   216      1   35.4810610000   14.0202671500    2.4296734700
   217      1   37.5681820100   13.2823578600    1.1127407300
   218      1   41.7424246700   16.2339931500    0.9989802000
   219      1   39.6553030300   14.7581758200    1.0564190400
   220      1   37.5681820100   15.4960844900    2.3692039000
   221      1   39.6553030300   16.9719018200    2.3057951300
   222      1   41.7424246700   14.0202671500    2.3057951300
   223      1   43.8295456800   13.2823578600    1.0037546600
   224      1   48.0037883400   16.2339931500    0.9111342500
   225      1   45.9166667000   14.7581758200    0.9565168600
   226      1   43.8295456800   15.4960844900    2.2537764400
   227      1   45.9166667000   16.9719018200    2.2034050600
   228      1   48.0037883400   14.0202671500    2.2186388300
   229      1   50.0909093500   13.2823578600    0.9270636100
   230      1   54.2651520100   16.2339931500    0.8541267900
   231      1   52.1780303700   14.7581758200    0.8894436400
   232      1   50.0909093500   15.4960844900    2.1774569600
   233      1   52.1780303700   16.9719018200    2.1388197200
   234      1   54.2651520100   14.0202671500    2.1590793800
   235      1   56.3522730200   13.2823578600    0.8736886000
   236      1   60.5265156800   16.2339931500    0.8155470200
   237      1   58.4393940400   14.7581758200    0.8436109300
   238      1   56.3522730200   15.4960844900    2.1265820100
   239      1   58.4393940400   16.9719018200    2.0963563800
   240      1   60.5265156800   14.0202671500    2.1174510900
   241      1    0.0000000000   17.7098111100   -0.7989129600
   242      1    4.1742426500   20.6614457700   -0.7823950600
   243      1    2.0871210100   19.1856284400   -0.7913309900
   244      1    0.0000000000   19.9235371100    0.5052173500
   245      1    2.0871210100   21.3993550600    0.5151694200
   246      1    4.1742426500   18.4477197700    0.4661566000
   247      1    6.2613636700   17.7098111100   -0.8349766300
   248      1   10.4356063200   20.6614457700   -0.8223704100
   249      1    8.3484846800   19.1856284400   -0.8293225400
   250      1    6.2613636700   19.9235371100    0.4736929700
   251      1    8.3484846800   21.3993550600    0.4828238900
   252      1   10.4356063200   18.4477197700    0.4205499600
   253      1   12.5227273400   17.7098111100   -0.8894436400
   254      1   16.6969699900   20.6614457700   -0.8894436400
   255      1   14.6098483500   19.1856284400   -0.8894436400
   256      1   12.5227273400   19.9235371100    0.4245176800
   257      1   14.6098483500   21.3993550600    0.4296090000
   258      1   16.6969699900   18.4477197700    0.3476947400
   259      1   18.7840910100   17.7098111100   -0.9765999300
   260      1   22.9583336600   20.6614457700   -1.0133219700
   261      1   20.8712120200   19.1856284400   -0.9918338100
   262      1   18.7840910100   19.9235371100    0.3409265600
   263      1   20.8712120200   21.3993550600    0.3314963600
   264      1   22.9583336600   18.4477197700    0.2254122900
   265      1   25.0454546800   17.7098111100   -1.1177326600
   266      1   29.2196973300   20.6614457700   -1.2340115400
   267      1   27.1325756900   19.1856284400   -1.1659556100
   268      1   25.0454546800   19.9235371100    0.1902747800
   269      1   27.1325756900   21.3993550600    0.1382559900
   270      1   29.2196973300   18.4477197700    0.0358659200
   271      1   31.3068183400   17.7098111100    1.2443294500
   272      1   35.4810610000   20.6614457700    1.0754249400
   273      1   33.3939393600   19.1856284400    1.1659556100
   274      1   31.3068183400   19.9235371100    2.5152338800
   275      1   33.3939393600   21.3993550600    2.4179350300
   276      1   35.4810610000   18.4477197700    2.3868957100
   277      1   37.5681820100   17.7098111100    1.0635655400
   278      1   41.7424246700   20.6614457700    0.9222491800
   279      1   39.6553030300   19.1856284400    0.9918338100
   280      1   37.5681820100   19.9235371100    2.3057951300
   281      1   39.6553030300   21.3993550600    2.2246946600
   282      1   41.7424246700   18.4477197700    2.2423863600
   283      1   43.8295456800   17.7098111100    0.9426585200
   284      1   48.0037883400   20.6614457700    0.8407125100
   285      1   45.9166667000   19.1856284400    0.8894436400
   286      1   43.8295456800   19.9235371100    2.1819168000
   287      1   45.9166667000   21.3993550600    2.1265820100
   288      1   48.0037883400   18.4477197700    2.1560353600
   289      1   50.0909093500   17.7098111100    0.8685404400
   290      1   54.2651520100   20.6614457700    0.7937333000
   291      1   52.1780303700   19.1856284400    0.8293225400
   292      1   50.0909093500   19.9235371100    2.1125547600
   293      1   52.1780303700   21.3993550600    2.0733671200
   294      1   54.2651520100   18.4477197700    2.1031245600
   295      1   56.3522730200   17.7098111100    0.8213877100
   296      1   60.5265156800   20.6614457700    0.7639284200
   297      1   58.4393940400   19.1856284400    0.7913309900
   298      1   56.3522730200   19.9235371100    2.0705329200
   299      1   58.4393940400   21.3993550600    2.0410215900
   300      1   60.5265156800   18.4477197700    2.0684707900
   301      1    0.0000000000   22.1372637300   -0.7456558500
   302      1    4.1742426500   25.0888983900   -0.7185676900
   303      1    2.0871210100   23.6130810600   -0.7332197700
   304      1    0.0000000000   24.3509897300    0.5606739100
   305      1    2.0871210100   25.8268076800    0.5756389800
   306      1    4.1742426500   22.8751723900    0.5269078600
   307      1    6.2613636700   22.1372637300   -0.7717182600
   308      1   10.4356063200   25.0888983900   -0.7427278800
   309      1    8.3484846800   23.6130810600   -0.7587571400
   310      1    6.2613636700   24.3509897300    0.5409351100
   311      1    8.3484846800   25.8268076800    0.5579472800
   312      1   10.4356063200   22.8751723900    0.4941023200
   313      1   12.5227273400   22.1372637300   -0.8136211800
   314      1   16.6969699900   25.0888983900   -0.7870534600
   315      1   14.6098483500   23.6130810600   -0.8022873400
   316      1   12.5227273400   24.3509897300    0.5083611600
   317      1   14.6098483500   25.8268076800    0.5269078600
   318      1   16.6969699900   22.8751723900    0.4363771800
   319      1   18.7840910100   22.1372637300   -0.8894436400
   320      1   22.9583336600   25.0888983900   -0.8894436400
   321      1   20.8712120200   23.6130810600   -0.8894436400
   322      1   18.7840910100   24.3509897300    0.4458073800
   323      1   20.8712120200   25.8268076800    0.4598346300
   324      1   22.9583336600   22.8751723900    0.3174691100
   325      1   25.0454546800   22.1372637300   -1.0456675000
   326      1   29.2196973300   25.0888983900   -1.1969950300
   327      1   27.1325756900   23.6130810600   -1.0988823900
   328      1   25.0454546800   24.3509897300    0.2944798500
   329      1   27.1325756900   25.8268076800    0.2503958800
   330      1   29.2196973300   22.8751723900    0.0571555100
   331      1   31.3068183400   22.1372637300    1.2260768200
   332      1   35.4810610000   25.0888983900    0.9565169600
   333      1   33.3939393600   23.6130810600    1.0988823900
   334      1   31.3068183400   24.3509897300    2.4850083500
   335      1   33.3939393600   25.8268076800    2.3057952300
   336      1   35.4810610000   22.8751723900    2.3057951300
   337      1   37.5681820100   22.1372637300    0.9799744100
   338      1   41.7424246700   25.0888983900    0.8110699000
   339      1   39.6553030300   23.6130810600    0.8894436400
   340      1   37.5681820100   24.3509897300    2.1936553400
   341      1   39.6553030300   25.8268076800    2.0963564800
   342      1   41.7424246700   22.8751723900    2.1495712700
   343      1   43.8295456800   22.1372637300    0.8584043200
   344      1   48.0037883400   25.0888983900    0.7543144800
   345      1   45.9166667000   23.6130810600    0.8022873400
   346      1   43.8295456800   24.3509897300    2.0841187700
   347      1   45.9166667000   25.8268076800    2.0292831600
   348      1   48.0037883400   22.8751723900    2.0775061100
   349      1   50.0909093500   22.1372637300    0.7971275100
   350      1   54.2651520100   25.0888983900    0.7252850500
   351      1   52.1780303700   23.6130810600    0.7587571400
   352      1   50.0909093500   24.3509897300    2.0348686400
   353      1   52.1780303700   25.8268076800    1.9982437400
   354      1   54.2651520100   22.8751723900    2.0384870800
   355      1   56.3522730200   22.1372637300    0.7617614900
   356      1   60.5265156800   25.0888983900    0.7078232000
   357      1   58.4393940400   23.6130810600    0.7332197700
   358      1   56.3522730200   24.3509897300    2.0076739400
   359      1   58.4393940400   25.8268076800    1.9805520300
   360      1   60.5265156800   22.8751723900    2.0144421200
   361      1    0.0000000000   26.5647163500   -0.6884028900
   362      1    4.1742426500   29.5163516400   -0.6505516400
   363      1    2.0871210100   28.0405336800   -0.6709458500
   364      1    0.0000000000   28.7784423500    0.6192239800
   365      1    2.0871210100   30.2542603000    0.6390477500
   366      1    4.1742426500   27.3026250200    0.5932150400
   367      1    6.2613636700   26.5647163500   -0.7010996000
   368      1   10.4356063200   29.5163516400   -0.6541814300
   369      1    8.3484846800   28.0405336800   -0.6800048900
   370      1    6.2613636700   28.7784423500    0.6140641600
   371      1    8.3484846800   30.2542603000    0.6390477500
   372      1   10.4356063200   27.3026250200    0.5789266500
   373      1   12.5227273400   26.5647163500   -0.7224682300
   374      1   16.6969699900   29.5163516400   -0.6611546100
   375      1   14.6098483500   28.0405336800   -0.6962032600
   376      1   12.5227273400   28.7784423500    0.6052817000
   377      1   14.6098483500   30.2542603000    0.6390477500
   378      1   16.6969699900   27.3026250200    0.5518914600
   379      1   18.7840910100   26.5647163500   -0.7655653000
   380      1   22.9583336600   29.5163516400   -0.6800049900
   381      1   20.8712120200   28.0405336800   -0.7332197700
   382      1   18.7840910100   28.7784423500    0.5870289600
   383      1   20.8712120200   30.2542603000    0.6390477500
   384      1   22.9583336600   27.3026250200    0.4828238900
   385      1   25.0454546800   26.5647163500   -0.8894436400
   386      1   29.2196973300   29.5163516400   -0.8894437400
   387      1   27.1325756900   28.0405336800   -0.8894436400
   388      1   25.0454546800   28.7784423500    0.5269078600
   389      1   27.1325756900   30.2542603000    0.6390476500
   390      1   29.2196973300   27.3026250200    0.1382559900
   391      1   31.3068183400   26.5647163500    1.1659557100
   392      1   35.4810610000   29.5163516400    0.6962032600
   393      1   33.3939393600   28.0405336800    0.8894437400
   394      1   31.3068183400   28.7784423500    2.3057953400
   395      1   33.3939393600   30.2542603000    1.9171433600
   396      1   35.4810610000   27.3026250200    2.1265820100
   397      1   37.5681820100   26.5647163500    0.8293225400
   398      1   41.7424246700   29.5163516400    0.6651638500
   399      1   39.6553030300   28.0405336800    0.7332197700
   400      1   37.5681820100   28.7784423500    1.9982438400
   401      1   39.6553030300   30.2542603000    1.9171432600
   402      1   41.7424246700   27.3026250200    2.0195334400
   403      1   43.8295456800   26.5647163500    0.7470782100
   404      1   48.0037883400   29.5163516400    0.6559599200
   405      1   45.9166667000   28.0405336800    0.6962032600
   406      1   43.8295456800   28.7784423500    1.9612272300
   407      1   45.9166667000   30.2542603000    1.9171432600
   408      1   48.0037883400   27.3026250200    1.9842165900
   409      1   50.0909093500   26.5647163500    0.7138949700
   410      1   54.2651520100   29.5163516400    0.6515513100
   411      1   52.1780303700   28.0405336800    0.6800048900
   412      1   50.0909093500   28.7784423500    1.9473688900
   413      1   52.1780303700   30.2542603000    1.9171432600
   414      1   54.2651520100   27.3026250200    1.9669233400
   415      1   56.3522730200   26.5647163500    0.6962032600
   416      1   60.5265156800   29.5163516400    0.6489655700
   417      1   58.4393940400   28.0405336800    0.6709458500
   418      1   56.3522730200   28.7784423500    1.9401326200
   419      1   58.4393940400   30.2542603000    1.9171432600
   420      1   60.5265156800   27.3026250200    1.9566971500
   421      1    0.0000000000   30.9921689700   -0.6291299400
   422      1    4.1742426500   33.9438042600   -0.5818922400
   423      1    2.0871210100   32.4679863000   -0.6071496600
   424      1    0.0000000000   33.2058955900    0.6786016400
   425      1    2.0871210100   34.6817129200    0.7024565300
   426      1    4.1742426500   31.7300776400    0.6620370100
   427      1    6.2613636700   30.9921689700   -0.6265442000
   428      1   10.4356063200   33.9438042600   -0.5642005400
   429      1    8.3484846800   32.4679863000   -0.5980906200
   430      1    6.2613636700   33.2058955900    0.6888278400
   431      1    8.3484846800   34.6817129200    0.7201482300
   432      1   10.4356063200   31.7300776400    0.6692732800
   433      1   12.5227273400   30.9921689700   -0.6221355900
   434      1   16.6969699900   33.9438042600   -0.5310174000
   435      1   14.6098483500   32.4679863000   -0.5818922400
   436      1   12.5227273400   33.2058955900    0.7061209800
   437      1   14.6098483500   34.6817129200    0.7511876500
   438      1   16.6969699900   31.7300776400    0.6831317200
   439      1   18.7840910100   30.9921689700   -0.6129316600
   440      1   22.9583336600   33.9438042600   -0.4487730700
   441      1   20.8712120200   32.4679863000   -0.5448757300
   442      1   18.7840910100   33.2058955900    0.7414378300
   443      1   20.8712120200   34.6817129200    0.8182608700
   444      1   22.9583336600   31.7300776400    0.7201482300
   445      1   25.0454546800   30.9921689700   -0.5818923500
   446      1   29.2196973300   33.9438042600   -0.1121399000
   447      1   27.1325756900   32.4679863000   -0.3886519700
   448      1   25.0454546800   33.2058955900    0.8484864000
   449      1   27.1325756900   34.6817129200    1.0276996200
   450      1   29.2196973300   31.7300776400    1.0276995200
   451      1   31.3068183400   30.9921689700    0.3886520800
   452      1   35.4810610000   33.9438042600    0.3886518700
   453      1   33.3939393600   32.4679863000    0.3886519700
   454      1   31.3068183400   33.2058955900    1.4163515000
   455      1   33.3939393600   34.6817129200    1.5284913900
   456      1   35.4810610000   31.7300776400    1.8050034700
   457      1   37.5681820100   30.9921689700    0.5980906200
   458      1   41.7424246700   33.9438042600    0.5125302000
   459      1   39.6553030300   32.4679863000    0.5448757300
   460      1   37.5681820100   33.2058955900    1.7609195000
   461      1   39.6553030300   34.6817129200    1.7379301400
   462      1   41.7424246700   31.7300776400    1.8651245700
   463      1   43.8295456800   30.9921689700    0.6169408900
   464      1   48.0037883400   33.9438042600    0.5556273800
   465      1   45.9166667000   32.4679863000    0.5818922400
   466      1   43.8295456800   33.2058955900    1.8299869600
   467      1   45.9166667000   34.6817129200    1.8050033700
   468      1   48.0037883400   31.7300776400    1.8833772000
   469      1   50.0909093500   30.9921689700    0.6239140800
   470      1   54.2651520100   33.9438042600    0.5769959100
   471      1   52.1780303700   32.4679863000    0.5980906200
   472      1   50.0909093500   33.2058955900    1.8570221600
   473      1   52.1780303700   34.6817129200    1.8360427800
   474      1   54.2651520100   31.7300776400    1.8921597700
   475      1   56.3522730200   30.9921689700    0.6275439700
   476      1   60.5265156800   33.9438042600    0.5896926100
   477      1   58.4393940400   32.4679863000    0.6071496600
   478      1   56.3522730200   33.2058955900    1.8713105500
   479      1   58.4393940400   34.6817129200    1.8537344900
   480      1   60.5265156800   31.7300776400    1.8973194900