 # Fcc Cu oriented X=[111] Y=[11-2] Z=[-110].
 CRYSTAL
 PRIMVEC
     62.61363669        0.00000000        0.00000000
      0.00000000       61.98433794        0.00000000
      0.00000000        0.00000000       10.22476406
 CONVVEC
     62.61363669        0.00000000        0.00000000
      0.00000000       61.98433794        0.00000000
      0.00000000        0.00000000       10.22476406
 PRIMCOORD
     3360 1
29        0.00000000        0.00000000        0.00000000
29        4.17424245        2.95163514        0.00000000
29        2.08712122        1.47581757        0.00000000
29        0.00000000        2.21372636        1.27809551
29        2.08712122        3.68954393        1.27809551
29        4.17424245        0.73790879        1.27809551
29        6.26136367        0.00000000        0.00000000
29       10.43560612        2.95163514        0.00000000
29        8.34848489        1.47581757        0.00000000
29        6.26136367        2.21372636        1.27809551
29        8.34848489        3.68954393        1.27809551
29       10.43560612        0.73790879        1.27809551
29       12.52272734        0.00000000        0.00000000
29       16.69696978        2.95163514        0.00000000
29       14.60984856        1.47581757        0.00000000
29       12.52272734        2.21372636        1.27809551
29       14.60984856        3.68954393        1.27809551
29       16.69696978        0.73790879        1.27809551
29       18.78409101        0.00000000        0.00000000
29       22.95833345        2.95163514        0.00000000
29       20.87121223        1.47581757        0.00000000
29       18.78409101        2.21372636        1.27809551
29       20.87121223        3.68954393        1.27809551
29       22.95833345        0.73790879        1.27809551
29       25.04545468        0.00000000        0.00000000
29       29.21969712        2.95163514        0.00000000
29       27.13257590        1.47581757        0.00000000
29       25.04545468        2.21372636        1.27809551
29       27.13257590        3.68954393        1.27809551
29       29.21969712        0.73790879        1.27809551
29       31.30681835        0.00000000        0.00000000
29       35.48106079        2.95163514        0.00000000
29       33.39393957        1.47581757        0.00000000
29       31.30681835        2.21372636        1.27809551
29       33.39393957        3.68954393        1.27809551
29       35.48106079        0.73790879        1.27809551
29       37.56818202        0.00000000        0.00000000
29       41.74242446        2.95163514        0.00000000
29       39.65530324        1.47581757        0.00000000
29       37.56818202        2.21372636        1.27809551
29       39.65530324        3.68954393        1.27809551
29       41.74242446        0.73790879        1.27809551
29       43.82954569        0.00000000        0.00000000
29       48.00378813        2.95163514        0.00000000
29       45.91666691        1.47581757        0.00000000
29       43.82954569        2.21372636        1.27809551
29       45.91666691        3.68954393        1.27809551
29       48.00378813        0.73790879        1.27809551
29       50.09090935        0.00000000        0.00000000
29       54.26515180        2.95163514        0.00000000
29       52.17803058        1.47581757        0.00000000
29       50.09090935        2.21372636        1.27809551
29       52.17803058        3.68954393        1.27809551
29       54.26515180        0.73790879        1.27809551
29       56.35227302        0.00000000        0.00000000
29       60.52651547        2.95163514        0.00000000
29       58.43939425        1.47581757        0.00000000
29       56.35227302        2.21372636        1.27809551
29       58.43939425        3.68954393        1.27809551
29       60.52651547        0.73790879        1.27809551
29        0.00000000        4.42745271        0.00000000
29        4.17424245        7.37908785        0.00000000
29        2.08712122        5.90327028        0.00000000
29        0.00000000        6.64117907        1.27809551
29        2.08712122        8.11699664        1.27809551
29        4.17424245        5.16536150        1.27809551
29        6.26136367        4.42745271        0.00000000
29       10.43560612        7.37908785        0.00000000
29        8.34848489        5.90327028        0.00000000
29        6.26136367        6.64117907        1.27809551
29        8.34848489        8.11699664        1.27809551
29       10.43560612        5.16536150        1.27809551
29       12.52272734        4.42745271        0.00000000
29       16.69696978        7.37908785        0.00000000
29       14.60984856        5.90327028        0.00000000
29       12.52272734        6.64117907        1.27809551
29       14.60984856        8.11699664        1.27809551
29       16.69696978        5.16536150        1.27809551
29       18.78409101        4.42745271        0.00000000
29       22.95833345        7.37908785        0.00000000
29       20.87121223        5.90327028        0.00000000
29       18.78409101        6.64117907        1.27809551
29       20.87121223        8.11699664        1.27809551
29       22.95833345        5.16536150        1.27809551
29       25.04545468        4.42745271        0.00000000
29       29.21969712        7.37908785        0.00000000
29       27.13257590        5.90327028        0.00000000
29       25.04545468        6.64117907        1.27809551
29       27.13257590        8.11699664        1.27809551
29       29.21969712        5.16536150        1.27809551
29       31.30681835        4.42745271        0.00000000
29       35.48106079        7.37908785        0.00000000
29       33.39393957        5.90327028        0.00000000
29       31.30681835        6.64117907        1.27809551
29       33.39393957        8.11699664        1.27809551
29       35.48106079        5.16536150        1.27809551
29       37.56818202        4.42745271        0.00000000
29       41.74242446        7.37908785        0.00000000
29       39.65530324        5.90327028        0.00000000
29       37.56818202        6.64117907        1.27809551
29       39.65530324        8.11699664        1.27809551
29       41.74242446        5.16536150        1.27809551
29       43.82954569        4.42745271        0.00000000
29       48.00378813        7.37908785        0.00000000
29       45.91666691        5.90327028        0.00000000
29       43.82954569        6.64117907        1.27809551
29       45.91666691        8.11699664        1.27809551
29       48.00378813        5.16536150        1.27809551
29       50.09090935        4.42745271        0.00000000
29       54.26515180        7.37908785        0.00000000
29       52.17803058        5.90327028        0.00000000
29       50.09090935        6.64117907        1.27809551
29       52.17803058        8.11699664        1.27809551
29       54.26515180        5.16536150        1.27809551
29       56.35227302        4.42745271        0.00000000
29       60.52651547        7.37908785        0.00000000
29       58.43939425        5.90327028        0.00000000
29       56.35227302        6.64117907        1.27809551
29       58.43939425        8.11699664        1.27809551
29       60.52651547        5.16536150        1.27809551
29        0.00000000        8.85490542        0.00000000
29        4.17424245       11.80654056        0.00000000
29        2.08712122       10.33072299        0.00000000
29        0.00000000       11.06863178        1.27809551
29        2.08712122       12.54444935        1.27809551
29        4.17424245        9.59281421        1.27809551
29        6.26136367        8.85490542        0.00000000
29       10.43560612       11.80654056        0.00000000
29        8.34848489       10.33072299        0.00000000
29        6.26136367       11.06863178        1.27809551
29        8.34848489       12.54444935        1.27809551
29       10.43560612        9.59281421        1.27809551
29       12.52272734        8.85490542        0.00000000
29       16.69696978       11.80654056        0.00000000
29       14.60984856       10.33072299        0.00000000
29       12.52272734       11.06863178        1.27809551
29       14.60984856       12.54444935        1.27809551
29       16.69696978        9.59281421        1.27809551
29       18.78409101        8.85490542        0.00000000
29       22.95833345       11.80654056        0.00000000
29       20.87121223       10.33072299        0.00000000
29       18.78409101       11.06863178        1.27809551
29       20.87121223       12.54444935        1.27809551
29       22.95833345        9.59281421        1.27809551
29       25.04545468        8.85490542        0.00000000
29       29.21969712       11.80654056        0.00000000
29       27.13257590       10.33072299        0.00000000
29       25.04545468       11.06863178        1.27809551
29       27.13257590       12.54444935        1.27809551
29       29.21969712        9.59281421        1.27809551
29       31.30681835        8.85490542        0.00000000
29       35.48106079       11.80654056        0.00000000
29       33.39393957       10.33072299        0.00000000
29       31.30681835       11.06863178        1.27809551
29       33.39393957       12.54444935        1.27809551
29       35.48106079        9.59281421        1.27809551
29       37.56818202        8.85490542        0.00000000
29       41.74242446       11.80654056        0.00000000
29       39.65530324       10.33072299        0.00000000
29       37.56818202       11.06863178        1.27809551
29       39.65530324       12.54444935        1.27809551
29       41.74242446        9.59281421        1.27809551
29       43.82954569        8.85490542        0.00000000
29       48.00378813       11.80654056        0.00000000
29       45.91666691       10.33072299        0.00000000
29       43.82954569       11.06863178        1.27809551
29       45.91666691       12.54444935        1.27809551
29       48.00378813        9.59281421        1.27809551
29       50.09090935        8.85490542        0.00000000
29       54.26515180       11.80654056        0.00000000
29       52.17803058       10.33072299        0.00000000
29       50.09090935       11.06863178        1.27809551
29       52.17803058       12.54444935        1.27809551
29       54.26515180        9.59281421        1.27809551
29       56.35227302        8.85490542        0.00000000
29       60.52651547       11.80654056        0.00000000
29       58.43939425       10.33072299        0.00000000
29       56.35227302       11.06863178        1.27809551
29       58.43939425       12.54444935        1.27809551
29       60.52651547        9.59281421        1.27809551
29        0.00000000       13.28235813        0.00000000
29        4.17424245       16.23399327        0.00000000
29        2.08712122       14.75817570        0.00000000
29        0.00000000       15.49608449        1.27809551
29        2.08712122       16.97190206        1.27809551
29        4.17424245       14.02026692        1.27809551
29        6.26136367       13.28235813        0.00000000
29       10.43560612       16.23399327        0.00000000
29        8.34848489       14.75817570        0.00000000
29        6.26136367       15.49608449        1.27809551
29        8.34848489       16.97190206        1.27809551
29       10.43560612       14.02026692        1.27809551
29       12.52272734       13.28235813        0.00000000
29       16.69696978       16.23399327        0.00000000
29       14.60984856       14.75817570        0.00000000
29       12.52272734       15.49608449        1.27809551
29       14.60984856       16.97190206        1.27809551
29       16.69696978       14.02026692        1.27809551
29       18.78409101       13.28235813        0.00000000
29       22.95833345       16.23399327        0.00000000
29       20.87121223       14.75817570        0.00000000
29       18.78409101       15.49608449        1.27809551
29       20.87121223       16.97190206        1.27809551
29       22.95833345       14.02026692        1.27809551
29       25.04545468       13.28235813        0.00000000
29       29.21969712       16.23399327        0.00000000
29       27.13257590       14.75817570        0.00000000
29       25.04545468       15.49608449        1.27809551
29       27.13257590       16.97190206        1.27809551
29       29.21969712       14.02026692        1.27809551
29       31.30681835       13.28235813        0.00000000
29       35.48106079       16.23399327        0.00000000
29       33.39393957       14.75817570        0.00000000
29       31.30681835       15.49608449        1.27809551
29       33.39393957       16.97190206        1.27809551
29       35.48106079       14.02026692        1.27809551
29       37.56818202       13.28235813        0.00000000
29       41.74242446       16.23399327        0.00000000
29       39.65530324       14.75817570        0.00000000
29       37.56818202       15.49608449        1.27809551
29       39.65530324       16.97190206        1.27809551
29       41.74242446       14.02026692        1.27809551
29       43.82954569       13.28235813        0.00000000
29       48.00378813       16.23399327        0.00000000
29       45.91666691       14.75817570        0.00000000
29       43.82954569       15.49608449        1.27809551
29       45.91666691       16.97190206        1.27809551
29       48.00378813       14.02026692        1.27809551
29       50.09090935       13.28235813        0.00000000
29       54.26515180       16.23399327        0.00000000
29       52.17803058       14.75817570        0.00000000
29       50.09090935       15.49608449        1.27809551
29       52.17803058       16.97190206        1.27809551
29       54.26515180       14.02026692        1.27809551
29       56.35227302       13.28235813        0.00000000
29       60.52651547       16.23399327        0.00000000
29       58.43939425       14.75817570        0.00000000
29       56.35227302       15.49608449        1.27809551
29       58.43939425       16.97190206        1.27809551
29       60.52651547       14.02026692        1.27809551
29        0.00000000       17.70981084        0.00000000
29        4.17424245       20.66144598        0.00000000
29        2.08712122       19.18562841        0.00000000
29        0.00000000       19.92353720        1.27809551
29        2.08712122       21.39935477        1.27809551
29        4.17424245       18.44771963        1.27809551
29        6.26136367       17.70981084        0.00000000
29       10.43560612       20.66144598        0.00000000
29        8.34848489       19.18562841        0.00000000
29        6.26136367       19.92353720        1.27809551
29        8.34848489       21.39935477        1.27809551
29       10.43560612       18.44771963        1.27809551
29       12.52272734       17.70981084        0.00000000
29       16.69696978       20.66144598        0.00000000
29       14.60984856       19.18562841        0.00000000
29       12.52272734       19.92353720        1.27809551
29       14.60984856       21.39935477        1.27809551
29       16.69696978       18.44771963        1.27809551
29       18.78409101       17.70981084        0.00000000
29       22.95833345       20.66144598        0.00000000
29       20.87121223       19.18562841        0.00000000
29       18.78409101       19.92353720        1.27809551
29       20.87121223       21.39935477        1.27809551
29       22.95833345       18.44771963        1.27809551
29       25.04545468       17.70981084        0.00000000
29       29.21969712       20.66144598        0.00000000
29       27.13257590       19.18562841        0.00000000
29       25.04545468       19.92353720        1.27809551
29       27.13257590       21.39935477        1.27809551
29       29.21969712       18.44771963        1.27809551
29       31.30681835       17.70981084        0.00000000
29       35.48106079       20.66144598        0.00000000
29       33.39393957       19.18562841        0.00000000
29       31.30681835       19.92353720        1.27809551
29       33.39393957       21.39935477        1.27809551
29       35.48106079       18.44771963        1.27809551
29       37.56818202       17.70981084        0.00000000
29       41.74242446       20.66144598        0.00000000
29       39.65530324       19.18562841        0.00000000
29       37.56818202       19.92353720        1.27809551
29       39.65530324       21.39935477        1.27809551
29       41.74242446       18.44771963        1.27809551
29       43.82954569       17.70981084        0.00000000
29       48.00378813       20.66144598        0.00000000
29       45.91666691       19.18562841        0.00000000
29       43.82954569       19.92353720        1.27809551
29       45.91666691       21.39935477        1.27809551
29       48.00378813       18.44771963        1.27809551
29       50.09090935       17.70981084        0.00000000
29       54.26515180       20.66144598        0.00000000
29       52.17803058       19.18562841        0.00000000
29       50.09090935       19.92353720        1.27809551
29       52.17803058       21.39935477        1.27809551
29       54.26515180       18.44771963        1.27809551
29       56.35227302       17.70981084        0.00000000
29       60.52651547       20.66144598        0.00000000
29       58.43939425       19.18562841        0.00000000
29       56.35227302       19.92353720        1.27809551
29       58.43939425       21.39935477        1.27809551
29       60.52651547       18.44771963        1.27809551
29        0.00000000       22.13726355        0.00000000
29        4.17424245       25.08889869        0.00000000
29        2.08712122       23.61308112        0.00000000
29        0.00000000       24.35098991        1.27809551
29        2.08712122       25.82680748        1.27809551
29        4.17424245       22.87517234        1.27809551
29        6.26136367       22.13726355        0.00000000
29       10.43560612       25.08889869        0.00000000
29        8.34848489       23.61308112        0.00000000
29        6.26136367       24.35098991        1.27809551
29        8.34848489       25.82680748        1.27809551
29       10.43560612       22.87517234        1.27809551
29       12.52272734       22.13726355        0.00000000
29       16.69696978       25.08889869        0.00000000
29       14.60984856       23.61308112        0.00000000
29       12.52272734       24.35098991        1.27809551
29       14.60984856       25.82680748        1.27809551
29       16.69696978       22.87517234        1.27809551
29       18.78409101       22.13726355        0.00000000
29       22.95833345       25.08889869        0.00000000
29       20.87121223       23.61308112        0.00000000
29       18.78409101       24.35098991        1.27809551
29       20.87121223       25.82680748        1.27809551
29       22.95833345       22.87517234        1.27809551
29       25.04545468       22.13726355        0.00000000
29       29.21969712       25.08889869        0.00000000
29       27.13257590       23.61308112        0.00000000
29       25.04545468       24.35098991        1.27809551
29       27.13257590       25.82680748        1.27809551
29       29.21969712       22.87517234        1.27809551
29       31.30681835       22.13726355        0.00000000
29       35.48106079       25.08889869        0.00000000
29       33.39393957       23.61308112        0.00000000
29       31.30681835       24.35098991        1.27809551
29       33.39393957       25.82680748        1.27809551
29       35.48106079       22.87517234        1.27809551
29       37.56818202       22.13726355        0.00000000
29       41.74242446       25.08889869        0.00000000
29       39.65530324       23.61308112        0.00000000
29       37.56818202       24.35098991        1.27809551
29       39.65530324       25.82680748        1.27809551
29       41.74242446       22.87517234        1.27809551
29       43.82954569       22.13726355        0.00000000
29       48.00378813       25.08889869        0.00000000
29       45.91666691       23.61308112        0.00000000
29       43.82954569       24.35098991        1.27809551
29       45.91666691       25.82680748        1.27809551
29       48.00378813       22.87517234        1.27809551
29       50.09090935       22.13726355        0.00000000
29       54.26515180       25.08889869        0.00000000
29       52.17803058       23.61308112        0.00000000
29       50.09090935       24.35098991        1.27809551
29       52.17803058       25.82680748        1.27809551
29       54.26515180       22.87517234        1.27809551
29       56.35227302       22.13726355        0.00000000
29       60.52651547       25.08889869        0.00000000
29       58.43939425       23.61308112        0.00000000
29       56.35227302       24.35098991        1.27809551
29       58.43939425       25.82680748        1.27809551
29       60.52651547       22.87517234        1.27809551
29        0.00000000       26.56471626        0.00000000
29        4.17424245       29.51635140        0.00000000
29        2.08712122       28.04053383        0.00000000
29        0.00000000       28.77844262        1.27809551
29        2.08712122       30.25426019        1.27809551
29        4.17424245       27.30262505        1.27809551
29        6.26136367       26.56471626        0.00000000
29       10.43560612       29.51635140        0.00000000
29        8.34848489       28.04053383        0.00000000
29        6.26136367       28.77844262        1.27809551
29        8.34848489       30.25426019        1.27809551
29       10.43560612       27.30262505        1.27809551
29       12.52272734       26.56471626        0.00000000
29       16.69696978       29.51635140        0.00000000
29       14.60984856       28.04053383        0.00000000
29       12.52272734       28.77844262        1.27809551
29       14.60984856       30.25426019        1.27809551
29       16.69696978       27.30262505        1.27809551
29       18.78409101       26.56471626        0.00000000
29       22.95833345       29.51635140        0.00000000
29       20.87121223       28.04053383        0.00000000
29       18.78409101       28.77844262        1.27809551
29       20.87121223       30.25426019        1.27809551
29       22.95833345       27.30262505        1.27809551
29       25.04545468       26.56471626        0.00000000
29       29.21969712       29.51635140        0.00000000
29       27.13257590       28.04053383        0.00000000
29       25.04545468       28.77844262        1.27809551
29       27.13257590       30.25426019        1.27809551
29       29.21969712       27.30262505        1.27809551
29       31.30681835       26.56471626        0.00000000
29       35.48106079       29.51635140        0.00000000
29       33.39393957       28.04053383        0.00000000
29       31.30681835       28.77844262        1.27809551
29       33.39393957       30.25426019        1.27809551
29       35.48106079       27.30262505        1.27809551
29       37.56818202       26.56471626        0.00000000
29       41.74242446       29.51635140        0.00000000
29       39.65530324       28.04053383        0.00000000
29       37.56818202       28.77844262        1.27809551
29       39.65530324       30.25426019        1.27809551
29       41.74242446       27.30262505        1.27809551
29       43.82954569       26.56471626        0.00000000
29       48.00378813       29.51635140        0.00000000
29       45.91666691       28.04053383        0.00000000
29       43.82954569       28.77844262        1.27809551
29       45.91666691       30.25426019        1.27809551
29       48.00378813       27.30262505        1.27809551
29       50.09090935       26.56471626        0.00000000
29       54.26515180       29.51635140        0.00000000
29       52.17803058       28.04053383        0.00000000
29       50.09090935       28.77844262        1.27809551
29       52.17803058       30.25426019        1.27809551
29       54.26515180       27.30262505        1.27809551
29       56.35227302       26.56471626        0.00000000
29       60.52651547       29.51635140        0.00000000
29       58.43939425       28.04053383        0.00000000
29       56.35227302       28.77844262        1.27809551
29       58.43939425       30.25426019        1.27809551
29       60.52651547       27.30262505        1.27809551
29        0.00000000       30.99216897        0.00000000
29        4.17424245       33.94380411        0.00000000
29        2.08712122       32.46798654        0.00000000
29        0.00000000       33.20589533        1.27809551
29        2.08712122       34.68171290        1.27809551
29        4.17424245       31.73007776        1.27809551
29        6.26136367       30.99216897        0.00000000
29       10.43560612       33.94380411        0.00000000
29        8.34848489       32.46798654        0.00000000
29        6.26136367       33.20589533        1.27809551
29        8.34848489       34.68171290        1.27809551
29       10.43560612       31.73007776        1.27809551
29       12.52272734       30.99216897        0.00000000
29       16.69696978       33.94380411        0.00000000
29       14.60984856       32.46798654        0.00000000
29       12.52272734       33.20589533        1.27809551
29       14.60984856       34.68171290        1.27809551
29       16.69696978       31.73007776        1.27809551
29       18.78409101       30.99216897        0.00000000
29       22.95833345       33.94380411        0.00000000
29       20.87121223       32.46798654        0.00000000
29       18.78409101       33.20589533        1.27809551
29       20.87121223       34.68171290        1.27809551
29       22.95833345       31.73007776        1.27809551
29       25.04545468       30.99216897        0.00000000
29       29.21969712       33.94380411        0.00000000
29       27.13257590       32.46798654        0.00000000
29       25.04545468       33.20589533        1.27809551
29       27.13257590       34.68171290        1.27809551
29       29.21969712       31.73007776        1.27809551
29       31.30681835       30.99216897        0.00000000
29       35.48106079       33.94380411        0.00000000
29       33.39393957       32.46798654        0.00000000
29       31.30681835       33.20589533        1.27809551
29       33.39393957       34.68171290        1.27809551
29       35.48106079       31.73007776        1.27809551
29       37.56818202       30.99216897        0.00000000
29       41.74242446       33.94380411        0.00000000
29       39.65530324       32.46798654        0.00000000
29       37.56818202       33.20589533        1.27809551
29       39.65530324       34.68171290        1.27809551
29       41.74242446       31.73007776        1.27809551
29       43.82954569       30.99216897        0.00000000
29       48.00378813       33.94380411        0.00000000
29       45.91666691       32.46798654        0.00000000
29       43.82954569       33.20589533        1.27809551
29       45.91666691       34.68171290        1.27809551
29       48.00378813       31.73007776        1.27809551
29       50.09090935       30.99216897        0.00000000
29       54.26515180       33.94380411        0.00000000
29       52.17803058       32.46798654        0.00000000
29       50.09090935       33.20589533        1.27809551
29       52.17803058       34.68171290        1.27809551
29       54.26515180       31.73007776        1.27809551
29       56.35227302       30.99216897        0.00000000
29       60.52651547       33.94380411        0.00000000
29       58.43939425       32.46798654        0.00000000
29       56.35227302       33.20589533        1.27809551
29       58.43939425       34.68171290        1.27809551
29       60.52651547       31.73007776        1.27809551
29        0.00000000       35.41962168        0.00000000
29        4.17424245       38.37125682        0.00000000
29        2.08712122       36.89543925        0.00000000
29        0.00000000       37.63334804        1.27809551
29        2.08712122       39.10916561        1.27809551
29        4.17424245       36.15753047        1.27809551
29        6.26136367       35.41962168        0.00000000
29       10.43560612       38.37125682        0.00000000
29        8.34848489       36.89543925        0.00000000
29        6.26136367       37.63334804        1.27809551
29        8.34848489       39.10916561        1.27809551
29       10.43560612       36.15753047        1.27809551
29       12.52272734       35.41962168        0.00000000
29       16.69696978       38.37125682        0.00000000
29       14.60984856       36.89543925        0.00000000
29       12.52272734       37.63334804        1.27809551
29       14.60984856       39.10916561        1.27809551
29       16.69696978       36.15753047        1.27809551
29       18.78409101       35.41962168        0.00000000
29       22.95833345       38.37125682        0.00000000
29       20.87121223       36.89543925        0.00000000
29       18.78409101       37.63334804        1.27809551
29       20.87121223       39.10916561        1.27809551
29       22.95833345       36.15753047        1.27809551
29       25.04545468       35.41962168        0.00000000
29       29.21969712       38.37125682        0.00000000
29       27.13257590       36.89543925        0.00000000
29       25.04545468       37.63334804        1.27809551
29       27.13257590       39.10916561        1.27809551
29       29.21969712       36.15753047        1.27809551
29       31.30681835       35.41962168        0.00000000
29       35.48106079       38.37125682        0.00000000
29       33.39393957       36.89543925        0.00000000
29       31.30681835       37.63334804        1.27809551
29       33.39393957       39.10916561        1.27809551
29       35.48106079       36.15753047        1.27809551
29       37.56818202       35.41962168        0.00000000
29       41.74242446       38.37125682        0.00000000
29       39.65530324       36.89543925        0.00000000